#INFO: **** input file is /lustre/home/2201110421/python/srdiis/DyCp2/all/nevpt2/main.py ****
from pyscf import gto, scf, ao2mo, lib
from embed_sim import rdiis, ssdmet, sacasscf_mixer, siso, myavas
from pyscf.tools import molden, cubegen
import basis_set_exchange as bse
from functools import reduce
import numpy as np
import os

mol = gto.M(atom='structure.xyz',
        basis={
            'Dy':gto.basis.parse(bse.get_basis('ANO-RCC-VTZP',elements='Dy',fmt='nwchem')),
            'C1':gto.basis.parse(bse.get_basis('ANO-RCC-VTZP',elements='C',fmt='nwchem')),
            'C':gto.basis.parse(bse.get_basis('ANO-RCC-VDZP',elements='C',fmt='nwchem')),
            'H':gto.basis.parse(bse.get_basis('ANO-RCC-VDZP',elements='H',fmt='nwchem'))
            },
        symmetry=0,spin=5,charge=1,verbose=4)
title = 'DyCp2'
mf = scf.ROHF(mol).x2c().density_fit()
mf.chkfile = 'diis.chk'
mf.init_guess = 'chk'
#mf.level_shift = 0.2
mf.conv_tol = 1e-6
mf.diis = rdiis.RDIIS(rdiis_prop='dS',imp_idx=mol.search_ao_label(['Dy.*f']),power=0.)
mf.max_cycle = 0
mf.conv_check = False
mf.kernel()

ncas, nelec, mo = myavas.avas(mf, 'Dy 4f', minao=gto.basis.parse(bse.get_basis('ANO-RCC-VTZP',elements='Dy',fmt='nwchem')), openshell_option=3, threshold=0.5)
mycas = sacasscf_mixer.sacasscf_mixer(mf, ncas, nelec, statelis=[0,0,0,0,0,21])
mycas.kernel(mo)

ecorr = sacasscf_mixer.sacasscf_nevpt2(mycas)
mycas.fcisolver.e_states = mycas.fcisolver.e_states + ecorr
Ha2cm = 219474.63
np.savetxt(title+'_opt.txt',(mycas.fcisolver.e_states-np.min(mycas.fcisolver.e_states))*Ha2cm,fmt='%.6f')

mysiso = siso.SISO(title, mycas, verbose=5).density_fit()
mysiso.kernel()

from psh.psh import PSH
mypsh = PSH(mysiso,Nstate=int(16),lmax=int(12),TFO=1,TFB=0)
mypsh.gen_ESO()
mypsh.get_E_J()
mypsh.get_g_tensor()
#INFO: ******************** input file end ********************


System: uname_result(system='Linux', node='l09c73n4', release='4.18.0-425.3.1.el8.x86_64', version='#1 SMP Wed Nov 9 20:13:27 UTC 2022', machine='x86_64')  Threads 64
Python 3.10.15 (main, Oct  3 2024, 07:27:34) [GCC 11.2.0]
numpy 2.2.5  scipy 1.15.2  h5py 3.12.1
Date: Sun Apr 20 17:49:25 2025
PySCF version 2.8.0
PySCF path  /lustre/home/2201110421/.local/lib/python3.10/site-packages/pyscf

[ENV] PYSCF_TMPDIR /lustre/home/2201110421/__TMPDIR__
[CONFIG] conf_file /lustre/home/2201110421/.pyscf_conf.py
[INPUT] verbose = 4
[INPUT] num. atoms = 93
[INPUT] num. electrons = 327
[INPUT] charge = 1
[INPUT] spin (= nelec alpha-beta = 2S) = 5
[INPUT] symmetry 0 subgroup None
[INPUT] Mole.unit = angstrom
[INPUT] Symbol           X                Y                Z      unit          X                Y                Z       unit  Magmom
[INPUT]  1 Dy     9.556044000000   2.129450000000  14.226799000000 AA   18.058305994293   4.024077295955  26.884753739236 Bohr   0.0
[INPUT]  2 C1     7.814595000000   3.997071000000  14.041436000000 AA   14.767444324396   7.553369490441  26.534468435608 Bohr   0.0
[INPUT]  3 C1     7.200727000000   2.965486000000  14.838974000000 AA   13.607401927761   5.603956366232  28.041596829542 Bohr   0.0
[INPUT]  4 C1     6.938404000000   1.876663000000  13.965859000000 AA   13.111683301587   3.546379098105  26.391648604292 Bohr   0.0
[INPUT]  5 H      6.531568000000   1.059770000000  14.229882000000 AA   12.342874683973   2.002675055030  26.890579764878 Bohr   0.0
[INPUT]  6 C1     7.361681000000   2.171775000000  12.655193000000 AA   13.911560906414   4.104059954177  23.914848823513 Bohr   0.0
[INPUT]  7 C1     7.921230000000   3.469282000000  12.716848000000 AA   14.968955269689   6.555992828883  24.031359887723 Bohr   0.0
[INPUT]  8 H      8.312761000000   3.926100000000  11.980707000000 AA   15.708841628966   7.419253737655  22.640255008660 Bohr   0.0
[INPUT]  9 C      8.503646000000   5.313898000000  14.413355000000 AA   16.069562000253  10.041811873874  27.237293486130 Bohr   0.0
[INPUT] 10 C      9.878548000000   4.970582000000  15.031895000000 AA   18.667750228370   9.393038659693  28.406164683219 Bohr   0.0
[INPUT] 11 H     10.418109000000   4.481665000000  14.375368000000 AA   19.687372745866   8.469119432049  27.165508459837 Bohr   0.0
[INPUT] 12 H      9.749413000000   4.415174000000  15.827782000000 AA   18.423720445274   8.343469652300  29.910173139321 Bohr   0.0
[INPUT] 13 H     10.339512000000   5.798664000000  15.281140000000 AA   19.538845941654  10.957886848375  28.877169471136 Bohr   0.0
[INPUT] 14 C      7.687535000000   6.218609000000  15.334204000000 AA   14.527335723008  11.751467885755  28.977445898210 Bohr   0.0
[INPUT] 15 H      7.510011000000   5.752330000000  16.177664000000 AA   14.191863982471  10.870328278119  30.571354295236 Bohr   0.0
[INPUT] 16 H      6.837283000000   6.443968000000  14.900887000000 AA   12.920592306145  12.177334675461  28.158595443092 Bohr   0.0
[INPUT] 17 H      8.189838000000   7.040229000000  15.514196000000 AA   15.476550824556  13.304104664221  29.317581482823 Bohr   0.0
[INPUT] 18 C      8.787666000000   6.155878000000  13.152411000000 AA   16.606282014152  11.632923476235  24.854454667717 Bohr   0.0
[INPUT] 19 H      9.391098000000   5.661021000000  12.558016000000 AA   17.746603228951  10.697779275411  23.731210907906 Bohr   0.0
[INPUT] 20 H      9.207887000000   7.002180000000  13.411719000000 AA   17.400384615943  13.232202474907  25.344475769626 Bohr   0.0
[INPUT] 21 H      7.946631000000   6.338322000000  12.683971000000 AA   15.016956202979  11.977692669305  23.969231361926 Bohr   0.0
[INPUT] 22 C      6.723208000000   2.906036000000  16.310740000000 AA   12.705021798485   5.491612148127  30.822831488988 Bohr   0.0
[INPUT] 23 C      6.296226000000   1.497291000000  16.700558000000 AA   11.898142758366   2.829469918776  31.559480747414 Bohr   0.0
[INPUT] 24 H      5.572673000000   1.199676000000  16.108768000000 AA   10.530825751758   2.267059078214  30.441159724158 Bohr   0.0
[INPUT] 25 H      5.980750000000   1.495641000000  17.627630000000 AA   11.301979519492   2.826351870671  33.311392925167 Bohr   0.0
[INPUT] 26 H      7.059214000000   0.888400000000  16.613129000000 AA   13.339981114695   1.678832689064  31.394263882069 Bohr   0.0
[INPUT] 27 C      5.484590000000   3.792792000000  16.483772000000 AA   10.364373005528   7.167338127441  31.149814579774 Bohr   0.0
[INPUT] 28 H      5.710639000000   4.717319000000  16.251671000000 AA   10.791543706260   8.914440952207  30.711207256536 Bohr   0.0
[INPUT] 29 H      5.183826000000   3.753919000000  17.415895000000 AA    9.796011417400   7.093878803801  32.911271764182 Bohr   0.0
[INPUT] 30 H      4.769248000000   3.473009000000  15.895940000000 AA    9.012572540130   6.563035838150  30.038973092519 Bohr   0.0
[INPUT] 31 C      7.815513000000   3.303655000000  17.317108000000 AA   14.769179092978   6.243003160050  32.724591389515 Bohr   0.0
[INPUT] 32 H      8.569194000000   2.680836000000  17.244694000000 AA   16.193429768266   5.066045824875  32.587748761930 Bohr   0.0
[INPUT] 33 H      7.450916000000   3.270548000000  18.225904000000 AA   14.080190617140   6.180439997244  34.441966932615 Bohr   0.0
[INPUT] 34 H      8.124358000000   4.213174000000  17.121820000000 AA   15.352811557919   7.961744975138  32.355550554101 Bohr   0.0
[INPUT] 35 C      6.950428000000   1.380720000000  11.412148000000 AA   13.134405368508   2.609182654709  21.565834213003 Bohr   0.0
[INPUT] 36 C1    11.309863000000   0.269903000000  14.059336000000 AA   21.372543576352   0.510042750198  26.568294533238 Bohr   0.0
[INPUT] 37 C1    11.901112000000   1.272952000000  14.910574000000 AA   22.489842257775   2.405530649717  28.176901220061 Bohr   0.0
[INPUT] 38 C1    12.181399000000   2.391313000000  14.077235000000 AA   23.019507924051   4.518926648112  26.602118741142 Bohr   0.0
[INPUT] 39 H     12.582384000000   3.198662000000  14.375984000000 AA   23.777259754109   6.044595145054  27.166672531129 Bohr   0.0
[INPUT] 40 C1    11.789215000000   2.143232000000  12.756625000000 AA   22.278387573614   4.050121501404  24.106527523780 Bohr   0.0
[INPUT] 41 C1    11.242659000000   0.830959000000  12.754637000000 AA   21.245546421877   1.570284930742  24.102770748244 Bohr   0.0
[INPUT] 42 H     10.883315000000   0.393475000000  11.991466000000 AA   20.566484677371   0.743559986863  22.660586572034 Bohr   0.0
[INPUT] 43 C     10.609173000000  -1.066309000000  14.369601000000 AA   20.048431378130  -2.015031974159  27.154610409276 Bohr   0.0
[INPUT] 44 C      9.222604000000  -0.715259000000  14.958306000000 AA   17.428195715318  -1.351643618130  28.267101627438 Bohr   0.0
[INPUT] 45 H      8.705729000000  -0.207899000000  14.298180000000 AA   16.451443524684  -0.392872171571  27.019644279734 Bohr   0.0
[INPUT] 46 H      9.338013000000  -0.174634000000  15.767936000000 AA   17.646287117628  -0.330010432037  29.797080589670 Bohr   0.0
[INPUT] 47 H      8.744044000000  -1.540739000000  15.183129000000 AA   16.523848381146  -2.911574739436  28.691955523941 Bohr   0.0
[INPUT] 48 C     10.356125000000  -1.873578000000  13.098710000000 AA   19.570239961761  -3.540549293010  24.752974485102 Bohr   0.0
[INPUT] 49 H      9.946109000000  -2.732191000000  13.332961000000 AA   18.795422015072  -5.163092710002  25.195644719507 Bohr   0.0
[INPUT] 50 H     11.207101000000  -2.032895000000  12.638725000000 AA   21.178351540339  -3.841614789998  23.883728813694 Bohr   0.0
[INPUT] 51 H      9.754502000000  -1.374060000000  12.508433000000 AA   18.433337261522  -2.596597078720  23.637512617472 Bohr   0.0
[INPUT] 52 C     11.388838000000  -1.989050000000  15.300392000000 AA   21.521784697039  -3.758759748066  28.913550478486 Bohr   0.0
[INPUT] 53 H     11.514218000000  -1.548549000000  16.167759000000 AA   21.758718558537  -2.926333500469  30.552636557972 Bohr   0.0
[INPUT] 54 H     12.263964000000  -2.187113000000  14.906337000000 AA   23.175533161525  -4.133044573476  28.168894450471 Bohr   0.0
[INPUT] 55 H     10.890915000000  -2.823034000000  15.427303000000 AA   20.580846595917  -5.334761100335  29.153377510681 Bohr   0.0
[INPUT] 56 C     12.344826000000   1.283796000000  16.390293000000 AA   23.328340195410   2.426022839812  30.973164871376 Bohr   0.0
[INPUT] 57 C     13.586277000000   0.384404000000  16.537472000000 AA   25.674342582477   0.726418281187  31.251292872663 Bohr   0.0
[INPUT] 58 H     14.269858000000   0.662100000000  15.891605000000 AA   26.966123456434   1.251187667075  30.030781129769 Bohr   0.0
[INPUT] 59 H     13.943606000000   0.465759000000  17.445988000000 AA   26.349596528842   0.880156950051  32.968139292449 Bohr   0.0
[INPUT] 60 H     13.336493000000  -0.547943000000  16.366686000000 AA   25.202319232179  -1.035462201873  30.928554106753 Bohr   0.0
[INPUT] 61 C     12.791193000000   2.697941000000  16.809946000000 AA   24.171851576454   5.098369590235  31.766194108728 Bohr   0.0
[INPUT] 62 H     12.036365000000   3.316899000000  16.724663000000 AA   22.745433385301   6.268030692844  31.605032595647 Bohr   0.0
[INPUT] 63 H     13.524064000000   2.993955000000  16.231184000000 AA   25.556777051090   5.657754979272  30.672492437422 Bohr   0.0
[INPUT] 64 H     13.096076000000   2.680385000000  17.741016000000 AA   24.747996946490   5.065193558392  33.525661411527 Bohr   0.0
[INPUT] 65 C     11.241718000000   0.894893000000  17.376776000000 AA   21.243768189593   1.691102680790  32.837347567915 Bohr   0.0
[INPUT] 66 H     10.517681000000   1.554932000000  17.333874000000 AA   19.875536555542   2.938395622322  32.756274537719 Bohr   0.0
[INPUT] 67 H     11.608333000000   0.871062000000  18.284595000000 AA   21.936570132751   1.646068617516  34.552876848592 Bohr   0.0
[INPUT] 68 H     10.890656000000   0.010540000000  17.141989000000 AA   20.580357156851   0.019917713353  32.393664440307 Bohr   0.0
[INPUT] 69 C     12.213807000000   2.961852000000  11.525514000000 AA   23.080750168296   5.597089101495  21.780064904840 Bohr   0.0
[INPUT] 70 C     13.524995000000   2.371619000000  11.032273000000 AA   25.558536386112   4.481710381815  20.847974501434 Bohr   0.0
[INPUT] 71 H     13.378725000000   1.447438000000  10.740426000000 AA   25.282126145872   2.735261402288  20.296463601158 Bohr   0.0
[INPUT] 72 H     14.183485000000   2.384972000000  11.757515000000 AA   26.802902141877   4.506943894756  22.218483255466 Bohr   0.0
[INPUT] 73 H     13.859285000000   2.902245000000  10.278193000000 AA   26.190252932293   5.484448196388  19.422969825422 Bohr   0.0
[INPUT] 74 C     12.475589000000   4.435982000000  11.907376000000 AA   23.575446452637   8.382791073500  22.501679502219 Bohr   0.0
[INPUT] 75 H     11.655479000000   4.828820000000  12.273767000000 AA   22.025663160619   9.125147304822  23.194058146725 Bohr   0.0
[INPUT] 76 H     12.750122000000   4.936535000000  11.111351000000 AA   24.094238634792   9.328699154330  20.997410263912 Bohr   0.0
[INPUT] 77 H     13.186252000000   4.477696000000  12.581167000000 AA   24.918404889498   8.461619109060  23.774959957416 Bohr   0.0
[INPUT] 78 C     11.159631000000   2.944490000000  10.455500000000 AA   21.088646241206   5.564279676521  19.758031495390 Bohr   0.0
[INPUT] 79 H     11.017158000000   2.024059000000  10.151839000000 AA   20.819411291061   3.824917169961  19.184195370678 Bohr   0.0
[INPUT] 80 H     11.450239000000   3.497238000000   9.701022000000 AA   21.637815770814   6.608822012422  18.332274708380 Bohr   0.0
[INPUT] 81 H     10.321317000000   3.301810000000  10.818330000000 AA   19.504462374817   6.239516615350  20.443680825166 Bohr   0.0
[INPUT] 82 C      6.745838000000  -0.112074000000  11.766167000000 AA   12.747786300684  -0.211789165685  22.234833165895 Bohr   0.0
[INPUT] 83 H      7.576732000000  -0.477195000000  12.134665000000 AA   14.317948399228  -0.901767858012  22.931193463345 Bohr   0.0
[INPUT] 84 H      6.499476000000  -0.608765000000  10.958526000000 AA   12.282229593184  -1.150399124221  20.708612868925 Bohr   0.0
[INPUT] 85 H      6.029816000000  -0.193875000000  12.431066000000 AA   11.394700821520  -0.366370652400  23.491310176393 Bohr   0.0
[INPUT] 86 C      5.590468000000   1.907575000000  11.008406000000 AA   10.564453428145   3.604794312067  20.802872408019 Bohr   0.0
[INPUT] 87 H      4.970463000000   1.823686000000  11.762766000000 AA    9.392813782284   3.446267077204  22.228406207346 Bohr   0.0
[INPUT] 88 H      5.251590000000   1.390881000000  10.247941000000 AA    9.924066818505   2.628384161861  19.365801830701 Bohr   0.0
[INPUT] 89 H      5.667800000000   2.851174000000  10.753294000000 AA   10.710589728810   5.387937993481  20.320780596929 Bohr   0.0
[INPUT] 90 C      7.952284000000   1.464883000000  10.296391000000 AA   15.027638824761   2.768227674531  19.457359061437 Bohr   0.0
[INPUT] 91 H      7.658968000000   0.900753000000   9.551498000000 AA   14.473351916808   1.702176475880  18.049715299331 Bohr   0.0
[INPUT] 92 H      8.824540000000   1.155279000000  10.618130000000 AA   16.675963775269   2.183160907461  20.065357655028 Bohr   0.0
[INPUT] 93 H      8.026235000000   2.394094000000   9.994340000000 AA   15.167385961398   4.524181976464  18.886565395786 Bohr   0.0

nuclear repulsion = 6700.31263674069
number of shells = 234
number of NR pGTOs = 3745
number of NR cGTOs = 1030
basis = {'Dy': [[0, [48703424.0, 0.00051062, -0.00018679, 8.715e-05, -4.197e-05, 1.623e-05, -4.77e-06, -2.16e-05, 1.315e-05], [9835905.78, 0.00091639, -0.00033574, 0.00015669, -7.546e-05, 2.917e-05, -8.58e-06, -3.881e-05, 2.363e-05], [2507419.33, 0.00236982, -0.00087008, 0.0004062, -0.00019563, 7.564e-05, -2.224e-05, -0.00010077, 6.131e-05], [720107.291, 0.00504151, -0.00185896, 0.00086841, -0.00041835, 0.00016172, -4.754e-05, -0.000215, 0.00013091], [227915.188, 0.01090246, -0.00404956, 0.00189401, -0.00091246, 0.00035289, -0.00010376, -0.00047092, 0.00028639], [77972.0454, 0.02261548, -0.00850442, 0.0039849, -0.00192142, 0.00074263, -0.00021829, -0.0009847, 0.00060006], [28493.1637, 0.04689622, -0.0180222, 0.0084749, -0.00408667, 0.0015816, -0.00046509, -0.00212041, 0.00128761], [10994.2054, 0.09576921, -0.03819922, 0.01806638, -0.00873429, 0.0033747, -0.00099179, -0.00444871, 0.00271605], [4432.76659, 0.18702809, -0.08005879, 0.03831646, -0.01853919, 0.00718665, -0.00211419, -0.00972556, 0.00588848], [1855.9353, 0.31055332, -0.15174939, 0.07426101, -0.03622926, 0.01399717, -0.0041123, -0.01823945, 0.01117732], [804.115628, 0.34439942, -0.21181579, 0.1082699, -0.05306712, 0.02070126, -0.006099, -0.02894414, 0.01734779], [356.717248, 0.16185973, -0.064521, 0.03005414, -0.01505805, 0.00552152, -0.00159367, -0.00374778, 0.00298113], [163.510611, 0.0100827, 0.43261834, -0.33597759, 0.18427161, -0.07218752, 0.02120503, 0.08846365, -0.0552476], [77.7468785, 0.00324412, 0.5746653, -0.63590421, 0.37361716, -0.15343224, 0.04557852, 0.23720559, -0.13781894], [37.8689264, -0.00248632, 0.15019709, 0.08114765, -0.06359666, 0.03339437, -0.01049085, -0.10483675, 0.05257394], [18.8149364, 0.00163138, 0.00587647, 0.91500815, -1.04227461, 0.47561418, -0.14203101, -0.64681977, 0.38038991], [9.17736071, -0.00105311, -0.00111289, 0.32079411, -0.25331861, 0.13200862, -0.04203827, -0.33030623, 0.19176141], [4.38814536, 0.00062977, 0.00063454, 0.00486577, 1.0776, -0.81808349, 0.26539425, 2.47056998, -1.18360413], [2.00478195, -0.00023431, -0.00043087, 0.00376344, 0.41151803, -0.41033224, 0.13626068, -1.83682961, 0.38466386], [0.7515629, 5.661e-05, 0.00021594, -0.0014245, -0.00265658, 0.91652097, -0.38106898, -1.36176016, 1.18550874], [0.30062516, -0.00010589, -0.00011463, 0.00057648, 0.0074291, 0.48350787, -0.4308519, 3.07056964, -0.44340253], [0.12025006, 4.483e-05, 7.125e-05, -0.00038449, -0.00384615, -0.01942043, 0.22604469, -1.62013597, -1.07254728], [0.04810002, -9.08e-06, -4.207e-05, 0.00022269, 0.00203717, 0.04117364, 0.8025413, -0.82657694, -0.13239773], [0.01924001, 1.628e-05, 1.783e-05, -9.191e-05, -0.00103399, -0.00227057, 0.23566263, 1.19474292, 1.08074075], [0.007696, -3.36e-06, -5.37e-06, 2.816e-05, 0.0002903, 0.0023105, -0.00603435, -0.06570914, -0.06909287]], [1, [6873747.25, 2.666e-05, -1.322e-05, 6.26e-06, -2.17e-06, 1.74e-06, -3.1e-06, 4.12e-06], [1057919.64, 8.947e-05, -4.441e-05, 2.105e-05, -7.29e-06, 5.86e-06, -1.041e-05, 1.382e-05], [224119.965, 0.00029634, -0.00014736, 6.986e-05, -2.42e-05, 1.948e-05, -3.465e-05, 4.61e-05], [57590.4869, 0.00096719, -0.00048248, 0.00022899, -7.935e-05, 6.374e-05, -0.00011303, 0.00014968], [17230.9546, 0.00320383, -0.0016058, 0.00076224, -0.00026418, 0.00021288, -0.00037961, 0.00050674], [5880.0643, 0.01059206, -0.0053541, 0.00254986, -0.00088417, 0.00070936, -0.00125515, 0.00165715], [2242.72524, 0.03382242, -0.01734906, 0.00827371, -0.00287033, 0.00231667, -0.00414154, 0.00554898], [933.490886, 0.09775736, -0.0516229, 0.02484149, -0.00863138, 0.00692082, -0.0122277, 0.01612064], [414.230948, 0.23086474, -0.12769733, 0.06192917, -0.02155795, 0.01744556, -0.03130606, 0.04220192], [191.936524, 0.38098619, -0.22389326, 0.11079347, -0.0387053, 0.03096556, -0.05443014, 0.07137339], [91.6221274, 0.33293017, -0.15241264, 0.0672132, -0.02292433, 0.01903911, -0.03563671, 0.05014447], [43.8611428, 0.10085375, 0.29251263, -0.21134869, 0.07942482, -0.06706591, 0.12652894, -0.18308254], [21.5452745, 0.00273707, 0.60300143, -0.4803163, 0.18403668, -0.1512181, 0.27224936, -0.39372467], [10.5469112, 0.00126568, 0.24249463, 0.05368759, -0.04800893, 0.04549055, -0.0940304, 0.23727068], [5.0111035, -0.00075274, 0.01405951, 0.71825381, -0.37734966, 0.37839782, -0.83289852, 1.48745987], [2.30220189, 0.00031427, 0.00187369, 0.37777337, -0.19918231, 0.04045255, 0.37973994, -2.33432997], [1.00615809, -0.00015858, -0.00062766, 0.02067059, 0.49696473, -0.68804394, 1.23004075, 0.90264391], [0.40246323, 7.634e-05, 0.00032028, 0.00478163, 0.61274689, -0.07519176, -1.20088909, 1.12887094], [0.16098529, -4.221e-05, -0.00016848, -0.00217212, 0.10916501, 0.49911417, -0.33516687, -1.96163411], [0.06439411, 2.262e-05, 9.305e-05, 0.00121056, 0.00770242, 0.5328648, 0.83057532, 1.01583216], [0.02575764, -1.084e-05, -4.439e-05, -0.00059588, -0.00205505, 0.06155774, 0.0782207, 0.13301871], [0.01030306, 3.44e-06, 1.41e-05, 0.00018992, 0.00083932, 0.0003655, 0.0087259, 0.01962353]], [2, [4432.76659, 0.00040529, -0.00019466, 5.91e-05, -8.24e-05, 0.00012196], [1855.9353, 0.00132115, -0.00062435, 0.00017362, -0.00020321, 0.0002342], [804.115628, 0.00700052, -0.00338464, 0.00102541, -0.00142046, 0.0020826], [356.717248, 0.02979034, -0.0143448, 0.00411341, -0.00512371, 0.00653222], [163.510611, 0.10285194, -0.05084729, 0.0152633, -0.02064304, 0.02943213], [77.7468785, 0.25333255, -0.12556523, 0.03622242, -0.04540741, 0.05847198], [37.8689264, 0.3980799, -0.19208143, 0.05867513, -0.08302307, 0.12587606], [18.8149364, 0.32606805, -0.07116155, 0.01177525, -0.00741375, 0.00649177], [9.17736071, 0.09839079, 0.3122345, -0.10295527, 0.11752781, -0.18276148], [4.38814536, 0.00522266, 0.51695902, -0.20842942, 0.36949961, -0.72012887], [2.00478195, 0.00082068, 0.29235923, 0.0256903, -0.21701068, 1.20793867], [0.7515629, -0.00018753, 0.04017088, 0.44985419, -0.81737173, -0.13312085], [0.28409153, 0.00010876, -0.00257837, 0.48110489, 0.38179704, -0.87820366], [0.08929497, -3.808e-05, 0.00136356, 0.25089251, 0.57870432, 0.77689528], [0.03571798, 1.676e-05, -0.00051167, 0.03211638, 0.05747733, 0.06296428]], [3, [191.936524, 0.00282264, -0.0030448, 0.00320732], [91.6221274, 0.01054334, -0.01157445, 0.01375268], [43.8611428, 0.0422774, -0.04586565, 0.0487374], [21.5452745, 0.11522458, -0.12726733, 0.15040619], [10.5469112, 0.2412877, -0.25118357, 0.25366062], [5.0111035, 0.33641748, -0.26298914, 0.17960333], [2.30220189, 0.33089588, 0.0214549, -0.48019965], [1.00615809, 0.23406372, 0.44728066, -0.39520092], [0.40632415, 0.1058854, 0.42666992, 0.47485034], [0.16252966, 0.01641108, 0.13926544, 0.40928466], [0.06501186, -0.00020473, 0.01908808, 0.12171316]], [4, [6.670112, 0.24895926, -0.61348622], [2.668045, 0.42755061, -0.3081439], [1.067218, 0.48636482, 0.50096055], [0.426887, 0.15364251, 0.37473538]], [5, [3.201654, 0.52157065], [1.280661, 0.62512412]]], 'C1': [[0, [50557.501, 0.0001128874, -2.50742e-05, 1.61788e-05, -4.55357e-05], [7524.7856, 0.0005295373, -0.0001175945, 7.49712e-05, -0.000204647], [1694.3276, 0.0024500383, -0.0005456275, 0.0003573467, -0.0010264601], [472.82279, 0.0100539847, -0.0022450771, 0.0014349316, -0.003776444], [151.71075, 0.0354539806, -0.0080434718, 0.0055086779, -0.0156602173], [53.918746, 0.1044071086, -0.0244258871, 0.016914969, -0.0398609476], [20.659311, 0.2412894918, -0.0613679118, 0.0514166524, -0.1297300876], [8.383976, 0.3834225483, -0.1177767835, 0.1137343741, -0.1592692975], [3.577015, 0.3078514393, -0.1550487783, 0.2337183944, -0.4821720801], [1.547118, 0.0687244299, -0.0193331686, -0.0718378257, 1.0854256553], [0.613013, 0.0002224445, 0.3996930678, -1.0490908711, 1.0468686972], [0.246068, 0.0019767489, 0.5589420949, -0.0666273399, -2.5679529689], [0.099087, 0.0020578594, 0.1711195023, 1.0119993798, 1.0616687974], [0.03468, 0.000418202, 0.0074562446, 0.1656046386, 0.4583312911]], [1, [83.333155, 0.001344656, 0.0037861905, -0.0017715885], [19.557611, 0.010235555, 0.0363883533, -0.014562181], [6.080365, 0.045200671, 0.1506435667, -0.0574573357], [2.179317, 0.1410756198, 0.666891458, -0.2126582848], [0.86515, 0.3047388085, 0.1737240264, -0.5271712924], [0.361944, 0.3995281011, -1.2802244007, -0.092969773], [0.15474, 0.2719163432, 0.3963864423, 0.6630031669], [0.065429, 0.0585766933, 0.5244641843, 0.3360877793], [0.0229, -0.0001263813, 0.0062295092, 0.0054695244]], [2, [1.9, 0.1424518048, -0.4383799723], [0.665, 0.5591973019, -0.5926781395], [0.23275, 0.443000438, 0.8672435762], [0.081463, 0.041066537, 0.1701714938]], [3, [1.25, 0.3217598929], [0.5, 0.589420446], [0.2, 0.2711660139]]], 'C': [[0, [50557.501, 0.0001128874, -2.50742e-05, 1.61788e-05], [7524.7856, 0.0005295373, -0.0001175945, 7.49712e-05], [1694.3276, 0.0024500383, -0.0005456275, 0.0003573467], [472.82279, 0.0100539847, -0.0022450771, 0.0014349316], [151.71075, 0.0354539806, -0.0080434718, 0.0055086779], [53.918746, 0.1044071086, -0.0244258871, 0.016914969], [20.659311, 0.2412894918, -0.0613679118, 0.0514166524], [8.383976, 0.3834225483, -0.1177767835, 0.1137343741], [3.577015, 0.3078514393, -0.1550487783, 0.2337183944], [1.547118, 0.0687244299, -0.0193331686, -0.0718378257], [0.613013, 0.0002224445, 0.3996930678, -1.0490908711], [0.246068, 0.0019767489, 0.5589420949, -0.0666273399], [0.099087, 0.0020578594, 0.1711195023, 1.0119993798], [0.03468, 0.000418202, 0.0074562446, 0.1656046386]], [1, [83.333155, 0.001344656, -0.0017715885], [19.557611, 0.010235555, -0.014562181], [6.080365, 0.045200671, -0.0574573357], [2.179317, 0.1410756198, -0.2126582848], [0.86515, 0.3047388085, -0.5271712924], [0.361944, 0.3995281011, -0.092969773], [0.15474, 0.2719163432, 0.6630031669], [0.065429, 0.0585766933, 0.3360877793], [0.0229, -0.0001263813, 0.0054695244]], [2, [1.9, 0.1424518048], [0.665, 0.5591973019], [0.23275, 0.443000438], [0.081463, 0.041066537]]], 'H': [[0, [188.61445, 0.00096385, -0.0013119], [28.276596, 0.00749196, -0.0103451], [6.42483, 0.03759541, -0.0504953], [1.815041, 0.14339498, -0.2073855], [0.591063, 0.3486363, -0.4350885], [0.212149, 0.43829736, -0.0247297], [0.079891, 0.16510661, 0.32252599], [0.027962, 0.02102287, 0.70727538]], [1, [2.305, 0.11279019], [0.80675, 0.41850753], [0.282362, 0.47000773], [0.098827, 0.18262603]]]}
ecp = {}
CPU time:        14.18


******** <class 'pyscf.df.df_jk.DFsfX2C1eROHF'> ********
method = DFsfX2C1eROHF
initial guess = chk
damping factor = 0
level_shift factor = 0
DIIS = <embed_sim.rdiis.RDIIS object at 0x7fb56367bc10>
diis_start_cycle = 1
diis_space = 8
SCF conv_tol = 1e-06
SCF conv_tol_grad = None
SCF max_cycles = 0
direct_scf = False
chkfile to save SCF result = diis.chk
max_memory 1021060 MB (current use 125 MB)
num. doubly occ = 161  num. singly occ = 5


******** <class 'pyscf.x2c.sfx2c1e.SpinFreeX2CHelper'> ********
approx = 1e
xuncontract = 1
Set gradient conv threshold to 0.001
******** <class 'pyscf.df.df.DF'> ********
auxbasis = None
max_memory = 1021060
ETB for C1: l = 0, exps = 0.06936 * 2^n , n = 0..15
ETB for C1: l = 1, exps = 0.05636211493547772 * 2^n , n = 0..13
ETB for C1: l = 2, exps = 0.0458 * 2^n , n = 0..11
ETB for C1: l = 3, exps = 0.08638293118434914 * 2^n , n = 0..8
ETB for C1: l = 4, exps = 0.162926 * 2^n , n = 0..4
ETB for C: l = 0, exps = 0.06936 * 2^n , n = 0..15
ETB for C: l = 1, exps = 0.05636211493547772 * 2^n , n = 0..13
ETB for C: l = 2, exps = 0.0458 * 2^n , n = 0..11
ETB for C: l = 3, exps = 0.08638293118434914 * 2^n , n = 0..8
ETB for C: l = 4, exps = 0.162926 * 2^n , n = 0..4
ETB for Dy: l = 0, exps = 0.015392 * 2^n , n = 0..28
ETB for Dy: l = 1, exps = 0.017809250378384822 * 2^n , n = 0..24
ETB for Dy: l = 2, exps = 0.02060612 * 2^n , n = 0..22
ETB for Dy: l = 3, exps = 0.0383668862963259 * 2^n , n = 0..20
ETB for Dy: l = 4, exps = 0.05176180423020821 * 2^n , n = 0..17
ETB for Dy: l = 5, exps = 0.09637618617153929 * 2^n , n = 0..13
ETB for Dy: l = 6, exps = 0.13002372 * 2^n , n = 0..11
ETB for Dy: l = 7, exps = 0.3331829400183629 * 2^n , n = 0..7
ETB for Dy: l = 8, exps = 0.853774 * 2^n , n = 0..4
ETB for H: l = 0, exps = 0.055924 * 2^n , n = 0..12
ETB for H: l = 1, exps = 0.10513611318666864 * 2^n , n = 0..8
ETB for H: l = 2, exps = 0.197654 * 2^n , n = 0..4

WARN: Even tempered Gaussians are generated as DF auxbasis for  C1 C Dy H

init E= -13474.5458793185
  HOMO = -0.251101286256628  LUMO = -0.0404155133569208
SCF not converged.
SCF energy = -13474.5458793185

******** AVAS flags ********
aolabels = Dy 4f
ncore = 0
nunocc = 0
minao = [[0, [48703424.0, 0.00051062, -0.00018679, 8.715e-05, -4.197e-05, 1.623e-05, -4.77e-06, -2.16e-05, 1.315e-05], [9835905.78, 0.00091639, -0.00033574, 0.00015669, -7.546e-05, 2.917e-05, -8.58e-06, -3.881e-05, 2.363e-05], [2507419.33, 0.00236982, -0.00087008, 0.0004062, -0.00019563, 7.564e-05, -2.224e-05, -0.00010077, 6.131e-05], [720107.291, 0.00504151, -0.00185896, 0.00086841, -0.00041835, 0.00016172, -4.754e-05, -0.000215, 0.00013091], [227915.188, 0.01090246, -0.00404956, 0.00189401, -0.00091246, 0.00035289, -0.00010376, -0.00047092, 0.00028639], [77972.0454, 0.02261548, -0.00850442, 0.0039849, -0.00192142, 0.00074263, -0.00021829, -0.0009847, 0.00060006], [28493.1637, 0.04689622, -0.0180222, 0.0084749, -0.00408667, 0.0015816, -0.00046509, -0.00212041, 0.00128761], [10994.2054, 0.09576921, -0.03819922, 0.01806638, -0.00873429, 0.0033747, -0.00099179, -0.00444871, 0.00271605], [4432.76659, 0.18702809, -0.08005879, 0.03831646, -0.01853919, 0.00718665, -0.00211419, -0.00972556, 0.00588848], [1855.9353, 0.31055332, -0.15174939, 0.07426101, -0.03622926, 0.01399717, -0.0041123, -0.01823945, 0.01117732], [804.115628, 0.34439942, -0.21181579, 0.1082699, -0.05306712, 0.02070126, -0.006099, -0.02894414, 0.01734779], [356.717248, 0.16185973, -0.064521, 0.03005414, -0.01505805, 0.00552152, -0.00159367, -0.00374778, 0.00298113], [163.510611, 0.0100827, 0.43261834, -0.33597759, 0.18427161, -0.07218752, 0.02120503, 0.08846365, -0.0552476], [77.7468785, 0.00324412, 0.5746653, -0.63590421, 0.37361716, -0.15343224, 0.04557852, 0.23720559, -0.13781894], [37.8689264, -0.00248632, 0.15019709, 0.08114765, -0.06359666, 0.03339437, -0.01049085, -0.10483675, 0.05257394], [18.8149364, 0.00163138, 0.00587647, 0.91500815, -1.04227461, 0.47561418, -0.14203101, -0.64681977, 0.38038991], [9.17736071, -0.00105311, -0.00111289, 0.32079411, -0.25331861, 0.13200862, -0.04203827, -0.33030623, 0.19176141], [4.38814536, 0.00062977, 0.00063454, 0.00486577, 1.0776, -0.81808349, 0.26539425, 2.47056998, -1.18360413], [2.00478195, -0.00023431, -0.00043087, 0.00376344, 0.41151803, -0.41033224, 0.13626068, -1.83682961, 0.38466386], [0.7515629, 5.661e-05, 0.00021594, -0.0014245, -0.00265658, 0.91652097, -0.38106898, -1.36176016, 1.18550874], [0.30062516, -0.00010589, -0.00011463, 0.00057648, 0.0074291, 0.48350787, -0.4308519, 3.07056964, -0.44340253], [0.12025006, 4.483e-05, 7.125e-05, -0.00038449, -0.00384615, -0.01942043, 0.22604469, -1.62013597, -1.07254728], [0.04810002, -9.08e-06, -4.207e-05, 0.00022269, 0.00203717, 0.04117364, 0.8025413, -0.82657694, -0.13239773], [0.01924001, 1.628e-05, 1.783e-05, -9.191e-05, -0.00103399, -0.00227057, 0.23566263, 1.19474292, 1.08074075], [0.007696, -3.36e-06, -5.37e-06, 2.816e-05, 0.0002903, 0.0023105, -0.00603435, -0.06570914, -0.06909287]], [1, [6873747.25, 2.666e-05, -1.322e-05, 6.26e-06, -2.17e-06, 1.74e-06, -3.1e-06, 4.12e-06], [1057919.64, 8.947e-05, -4.441e-05, 2.105e-05, -7.29e-06, 5.86e-06, -1.041e-05, 1.382e-05], [224119.965, 0.00029634, -0.00014736, 6.986e-05, -2.42e-05, 1.948e-05, -3.465e-05, 4.61e-05], [57590.4869, 0.00096719, -0.00048248, 0.00022899, -7.935e-05, 6.374e-05, -0.00011303, 0.00014968], [17230.9546, 0.00320383, -0.0016058, 0.00076224, -0.00026418, 0.00021288, -0.00037961, 0.00050674], [5880.0643, 0.01059206, -0.0053541, 0.00254986, -0.00088417, 0.00070936, -0.00125515, 0.00165715], [2242.72524, 0.03382242, -0.01734906, 0.00827371, -0.00287033, 0.00231667, -0.00414154, 0.00554898], [933.490886, 0.09775736, -0.0516229, 0.02484149, -0.00863138, 0.00692082, -0.0122277, 0.01612064], [414.230948, 0.23086474, -0.12769733, 0.06192917, -0.02155795, 0.01744556, -0.03130606, 0.04220192], [191.936524, 0.38098619, -0.22389326, 0.11079347, -0.0387053, 0.03096556, -0.05443014, 0.07137339], [91.6221274, 0.33293017, -0.15241264, 0.0672132, -0.02292433, 0.01903911, -0.03563671, 0.05014447], [43.8611428, 0.10085375, 0.29251263, -0.21134869, 0.07942482, -0.06706591, 0.12652894, -0.18308254], [21.5452745, 0.00273707, 0.60300143, -0.4803163, 0.18403668, -0.1512181, 0.27224936, -0.39372467], [10.5469112, 0.00126568, 0.24249463, 0.05368759, -0.04800893, 0.04549055, -0.0940304, 0.23727068], [5.0111035, -0.00075274, 0.01405951, 0.71825381, -0.37734966, 0.37839782, -0.83289852, 1.48745987], [2.30220189, 0.00031427, 0.00187369, 0.37777337, -0.19918231, 0.04045255, 0.37973994, -2.33432997], [1.00615809, -0.00015858, -0.00062766, 0.02067059, 0.49696473, -0.68804394, 1.23004075, 0.90264391], [0.40246323, 7.634e-05, 0.00032028, 0.00478163, 0.61274689, -0.07519176, -1.20088909, 1.12887094], [0.16098529, -4.221e-05, -0.00016848, -0.00217212, 0.10916501, 0.49911417, -0.33516687, -1.96163411], [0.06439411, 2.262e-05, 9.305e-05, 0.00121056, 0.00770242, 0.5328648, 0.83057532, 1.01583216], [0.02575764, -1.084e-05, -4.439e-05, -0.00059588, -0.00205505, 0.06155774, 0.0782207, 0.13301871], [0.01030306, 3.44e-06, 1.41e-05, 0.00018992, 0.00083932, 0.0003655, 0.0087259, 0.01962353]], [2, [4432.76659, 0.00040529, -0.00019466, 5.91e-05, -8.24e-05, 0.00012196], [1855.9353, 0.00132115, -0.00062435, 0.00017362, -0.00020321, 0.0002342], [804.115628, 0.00700052, -0.00338464, 0.00102541, -0.00142046, 0.0020826], [356.717248, 0.02979034, -0.0143448, 0.00411341, -0.00512371, 0.00653222], [163.510611, 0.10285194, -0.05084729, 0.0152633, -0.02064304, 0.02943213], [77.7468785, 0.25333255, -0.12556523, 0.03622242, -0.04540741, 0.05847198], [37.8689264, 0.3980799, -0.19208143, 0.05867513, -0.08302307, 0.12587606], [18.8149364, 0.32606805, -0.07116155, 0.01177525, -0.00741375, 0.00649177], [9.17736071, 0.09839079, 0.3122345, -0.10295527, 0.11752781, -0.18276148], [4.38814536, 0.00522266, 0.51695902, -0.20842942, 0.36949961, -0.72012887], [2.00478195, 0.00082068, 0.29235923, 0.0256903, -0.21701068, 1.20793867], [0.7515629, -0.00018753, 0.04017088, 0.44985419, -0.81737173, -0.13312085], [0.28409153, 0.00010876, -0.00257837, 0.48110489, 0.38179704, -0.87820366], [0.08929497, -3.808e-05, 0.00136356, 0.25089251, 0.57870432, 0.77689528], [0.03571798, 1.676e-05, -0.00051167, 0.03211638, 0.05747733, 0.06296428]], [3, [191.936524, 0.00282264, -0.0030448, 0.00320732], [91.6221274, 0.01054334, -0.01157445, 0.01375268], [43.8611428, 0.0422774, -0.04586565, 0.0487374], [21.5452745, 0.11522458, -0.12726733, 0.15040619], [10.5469112, 0.2412877, -0.25118357, 0.25366062], [5.0111035, 0.33641748, -0.26298914, 0.17960333], [2.30220189, 0.33089588, 0.0214549, -0.48019965], [1.00615809, 0.23406372, 0.44728066, -0.39520092], [0.40632415, 0.1058854, 0.42666992, 0.47485034], [0.16252966, 0.01641108, 0.13926544, 0.40928466], [0.06501186, -0.00020473, 0.01908808, 0.12171316]], [4, [6.670112, 0.24895926, -0.61348622], [2.668045, 0.42755061, -0.3081439], [1.067218, 0.48636482, 0.50096055], [0.426887, 0.15364251, 0.37473538]], [5, [3.201654, 0.52157065], [1.280661, 0.62512412]]]
threshold = 0.5
with_iao = False
openshell_option = 3
canonicalize = True

** AVAS **
  Total number of HF MOs  is equal to    1030
  Number of occupied HF MOs is equal to  166
reference AO indices for [[0, [48703424.0, 0.00051062, -0.00018679, 8.715e-05, -4.197e-05, 1.623e-05, -4.77e-06, -2.16e-05, 1.315e-05], [9835905.78, 0.00091639, -0.00033574, 0.00015669, -7.546e-05, 2.917e-05, -8.58e-06, -3.881e-05, 2.363e-05], [2507419.33, 0.00236982, -0.00087008, 0.0004062, -0.00019563, 7.564e-05, -2.224e-05, -0.00010077, 6.131e-05], [720107.291, 0.00504151, -0.00185896, 0.00086841, -0.00041835, 0.00016172, -4.754e-05, -0.000215, 0.00013091], [227915.188, 0.01090246, -0.00404956, 0.00189401, -0.00091246, 0.00035289, -0.00010376, -0.00047092, 0.00028639], [77972.0454, 0.02261548, -0.00850442, 0.0039849, -0.00192142, 0.00074263, -0.00021829, -0.0009847, 0.00060006], [28493.1637, 0.04689622, -0.0180222, 0.0084749, -0.00408667, 0.0015816, -0.00046509, -0.00212041, 0.00128761], [10994.2054, 0.09576921, -0.03819922, 0.01806638, -0.00873429, 0.0033747, -0.00099179, -0.00444871, 0.00271605], [4432.76659, 0.18702809, -0.08005879, 0.03831646, -0.01853919, 0.00718665, -0.00211419, -0.00972556, 0.00588848], [1855.9353, 0.31055332, -0.15174939, 0.07426101, -0.03622926, 0.01399717, -0.0041123, -0.01823945, 0.01117732], [804.115628, 0.34439942, -0.21181579, 0.1082699, -0.05306712, 0.02070126, -0.006099, -0.02894414, 0.01734779], [356.717248, 0.16185973, -0.064521, 0.03005414, -0.01505805, 0.00552152, -0.00159367, -0.00374778, 0.00298113], [163.510611, 0.0100827, 0.43261834, -0.33597759, 0.18427161, -0.07218752, 0.02120503, 0.08846365, -0.0552476], [77.7468785, 0.00324412, 0.5746653, -0.63590421, 0.37361716, -0.15343224, 0.04557852, 0.23720559, -0.13781894], [37.8689264, -0.00248632, 0.15019709, 0.08114765, -0.06359666, 0.03339437, -0.01049085, -0.10483675, 0.05257394], [18.8149364, 0.00163138, 0.00587647, 0.91500815, -1.04227461, 0.47561418, -0.14203101, -0.64681977, 0.38038991], [9.17736071, -0.00105311, -0.00111289, 0.32079411, -0.25331861, 0.13200862, -0.04203827, -0.33030623, 0.19176141], [4.38814536, 0.00062977, 0.00063454, 0.00486577, 1.0776, -0.81808349, 0.26539425, 2.47056998, -1.18360413], [2.00478195, -0.00023431, -0.00043087, 0.00376344, 0.41151803, -0.41033224, 0.13626068, -1.83682961, 0.38466386], [0.7515629, 5.661e-05, 0.00021594, -0.0014245, -0.00265658, 0.91652097, -0.38106898, -1.36176016, 1.18550874], [0.30062516, -0.00010589, -0.00011463, 0.00057648, 0.0074291, 0.48350787, -0.4308519, 3.07056964, -0.44340253], [0.12025006, 4.483e-05, 7.125e-05, -0.00038449, -0.00384615, -0.01942043, 0.22604469, -1.62013597, -1.07254728], [0.04810002, -9.08e-06, -4.207e-05, 0.00022269, 0.00203717, 0.04117364, 0.8025413, -0.82657694, -0.13239773], [0.01924001, 1.628e-05, 1.783e-05, -9.191e-05, -0.00103399, -0.00227057, 0.23566263, 1.19474292, 1.08074075], [0.007696, -3.36e-06, -5.37e-06, 2.816e-05, 0.0002903, 0.0023105, -0.00603435, -0.06570914, -0.06909287]], [1, [6873747.25, 2.666e-05, -1.322e-05, 6.26e-06, -2.17e-06, 1.74e-06, -3.1e-06, 4.12e-06], [1057919.64, 8.947e-05, -4.441e-05, 2.105e-05, -7.29e-06, 5.86e-06, -1.041e-05, 1.382e-05], [224119.965, 0.00029634, -0.00014736, 6.986e-05, -2.42e-05, 1.948e-05, -3.465e-05, 4.61e-05], [57590.4869, 0.00096719, -0.00048248, 0.00022899, -7.935e-05, 6.374e-05, -0.00011303, 0.00014968], [17230.9546, 0.00320383, -0.0016058, 0.00076224, -0.00026418, 0.00021288, -0.00037961, 0.00050674], [5880.0643, 0.01059206, -0.0053541, 0.00254986, -0.00088417, 0.00070936, -0.00125515, 0.00165715], [2242.72524, 0.03382242, -0.01734906, 0.00827371, -0.00287033, 0.00231667, -0.00414154, 0.00554898], [933.490886, 0.09775736, -0.0516229, 0.02484149, -0.00863138, 0.00692082, -0.0122277, 0.01612064], [414.230948, 0.23086474, -0.12769733, 0.06192917, -0.02155795, 0.01744556, -0.03130606, 0.04220192], [191.936524, 0.38098619, -0.22389326, 0.11079347, -0.0387053, 0.03096556, -0.05443014, 0.07137339], [91.6221274, 0.33293017, -0.15241264, 0.0672132, -0.02292433, 0.01903911, -0.03563671, 0.05014447], [43.8611428, 0.10085375, 0.29251263, -0.21134869, 0.07942482, -0.06706591, 0.12652894, -0.18308254], [21.5452745, 0.00273707, 0.60300143, -0.4803163, 0.18403668, -0.1512181, 0.27224936, -0.39372467], [10.5469112, 0.00126568, 0.24249463, 0.05368759, -0.04800893, 0.04549055, -0.0940304, 0.23727068], [5.0111035, -0.00075274, 0.01405951, 0.71825381, -0.37734966, 0.37839782, -0.83289852, 1.48745987], [2.30220189, 0.00031427, 0.00187369, 0.37777337, -0.19918231, 0.04045255, 0.37973994, -2.33432997], [1.00615809, -0.00015858, -0.00062766, 0.02067059, 0.49696473, -0.68804394, 1.23004075, 0.90264391], [0.40246323, 7.634e-05, 0.00032028, 0.00478163, 0.61274689, -0.07519176, -1.20088909, 1.12887094], [0.16098529, -4.221e-05, -0.00016848, -0.00217212, 0.10916501, 0.49911417, -0.33516687, -1.96163411], [0.06439411, 2.262e-05, 9.305e-05, 0.00121056, 0.00770242, 0.5328648, 0.83057532, 1.01583216], [0.02575764, -1.084e-05, -4.439e-05, -0.00059588, -0.00205505, 0.06155774, 0.0782207, 0.13301871], [0.01030306, 3.44e-06, 1.41e-05, 0.00018992, 0.00083932, 0.0003655, 0.0087259, 0.01962353]], [2, [4432.76659, 0.00040529, -0.00019466, 5.91e-05, -8.24e-05, 0.00012196], [1855.9353, 0.00132115, -0.00062435, 0.00017362, -0.00020321, 0.0002342], [804.115628, 0.00700052, -0.00338464, 0.00102541, -0.00142046, 0.0020826], [356.717248, 0.02979034, -0.0143448, 0.00411341, -0.00512371, 0.00653222], [163.510611, 0.10285194, -0.05084729, 0.0152633, -0.02064304, 0.02943213], [77.7468785, 0.25333255, -0.12556523, 0.03622242, -0.04540741, 0.05847198], [37.8689264, 0.3980799, -0.19208143, 0.05867513, -0.08302307, 0.12587606], [18.8149364, 0.32606805, -0.07116155, 0.01177525, -0.00741375, 0.00649177], [9.17736071, 0.09839079, 0.3122345, -0.10295527, 0.11752781, -0.18276148], [4.38814536, 0.00522266, 0.51695902, -0.20842942, 0.36949961, -0.72012887], [2.00478195, 0.00082068, 0.29235923, 0.0256903, -0.21701068, 1.20793867], [0.7515629, -0.00018753, 0.04017088, 0.44985419, -0.81737173, -0.13312085], [0.28409153, 0.00010876, -0.00257837, 0.48110489, 0.38179704, -0.87820366], [0.08929497, -3.808e-05, 0.00136356, 0.25089251, 0.57870432, 0.77689528], [0.03571798, 1.676e-05, -0.00051167, 0.03211638, 0.05747733, 0.06296428]], [3, [191.936524, 0.00282264, -0.0030448, 0.00320732], [91.6221274, 0.01054334, -0.01157445, 0.01375268], [43.8611428, 0.0422774, -0.04586565, 0.0487374], [21.5452745, 0.11522458, -0.12726733, 0.15040619], [10.5469112, 0.2412877, -0.25118357, 0.25366062], [5.0111035, 0.33641748, -0.26298914, 0.17960333], [2.30220189, 0.33089588, 0.0214549, -0.48019965], [1.00615809, 0.23406372, 0.44728066, -0.39520092], [0.40632415, 0.1058854, 0.42666992, 0.47485034], [0.16252966, 0.01641108, 0.13926544, 0.40928466], [0.06501186, -0.00020473, 0.01908808, 0.12171316]], [4, [6.670112, 0.24895926, -0.61348622], [2.668045, 0.42755061, -0.3081439], [1.067218, 0.48636482, 0.50096055], [0.426887, 0.15364251, 0.37473538]], [5, [3.201654, 0.52157065], [1.280661, 0.62512412]]] Dy 4f:
 [54 55 56 57 58 59 60]
Option 3: threshold 0.5, num open shell 5
Active from occupied = 2 , eig [1.         1.         1.         1.         1.         0.99957695
 0.99964992]
Inactive from occupied = 159
Active from unoccupied = 0 , eig []
Inactive from unoccupied = 864
Dimensions of active 7
# of alpha electrons 7
# of beta electrons 2
Attempting SA-CASSCF with
fix_spin parameter 0.5 on spin multiplicity 6
21 states with spin multiplicity 6

******** <class 'pyscf.mcscf.addons.StateAverageDFCASSCF'> ********
CAS (7e+2e, 7o), ncore = 159, nvir = 864
max_cycle_macro = 50
max_cycle_micro = 4
conv_tol = 1e-07
conv_tol_grad = None
orbital rotation max_stepsize = 0.02
orbital rotation threshold for CI restart = 0.01
augmented hessian ah_max_cycle = 30
augmented hessian ah_conv_tol = 1e-12
augmented hessian ah_linear dependence = 1e-14
augmented hessian ah_level shift = 1e-08
augmented hessian ah_start_tol = 2.5
augmented hessian ah_start_cycle = 3
augmented hessian ah_grad_trust_region = 3
kf_trust_region = 3
kf_interval = 4
ci_response_space = 4
ci_grad_trust_region = 3
with_dep4 0
natorb = False
canonicalization = True
sorting_mo_energy = False
ao2mo_level = 2
chkfile = diis.chk
max_memory 1021060 MB (current use 52631 MB)
internal_rotation = False
******** <class 'pyscf.mcscf.addons.StateAverageMixSpinPenaltyFCISolver'> ********
max. cycles = 100
conv_tol = 1e-10
davidson only = True
linear dependence = 1e-14
level shift = 0.001
max iter space = 12
max_memory 1021060 MB
nroots = 21
pspace_size = 400
spin = 5
State-average over 21 states with weights [0.04761905 0.04761905 0.04761905 0.04761905 0.04761905 0.04761905
 0.04761905 0.04761905 0.04761905 0.04761905 0.04761905 0.04761905
 0.04761905 0.04761905 0.04761905 0.04761905 0.04761905 0.04761905
 0.04761905 0.04761905 0.04761905]
DFCASCI/DFCASSCF: density fitting for JK matrix and 2e integral transformation
CASCI E = -13474.5018857266  S^2 = 8.7500000
Set conv_tol_grad to 0.000316228
macro iter   1 ( 10 JK    4 micro), CASSCF E = -13474.5125661916  dE = -1.06804650e-02  S^2 = 8.7500000
               |grad[o]|=0.414  |ddm|=2.04e-15  |maxRot[o]|=0.0196
macro iter   2 (  6 JK    2 micro), CASSCF E = -13474.5125664280  dE = -2.36339474e-07  S^2 = 8.7500000
               |grad[o]|=0.000817  |ddm|=3.07e-15  |maxRot[o]|=0.000126
macro iter   3 (  1 JK    1 micro), CASSCF E = -13474.5125664280  dE =  0.00000000e+00  S^2 = 8.7500000
               |grad[o]|=1.3e-05  |ddm|=2.6e-15  |maxRot[o]|=    0
1-step CASSCF converged in   3 macro ( 17 JK   7 micro) steps
CASSCF canonicalization
Density matrix diagonal elements [1.28571429 1.28571429 1.28571429 1.28571429 1.28571429 1.28571429
 1.28571429]
CASSCF energy = -13474.5125664280
CASCI E = -13474.5125664280  E(CI) = -49.7779009895239  S^2 = 8.7500000
CASCI state-averaged energy = -13474.512566428
CASCI energy for each state
  State 0 weight 0.047619  E = -13474.5508827248 S^2 = 8.7500000
  State 1 weight 0.047619  E = -13474.5508825149 S^2 = 8.7500000
  State 2 weight 0.047619  E = -13474.5471943652 S^2 = 8.7500000
  State 3 weight 0.047619  E = -13474.5471926939 S^2 = 8.7500000
  State 4 weight 0.047619  E = -13474.5465057197 S^2 = 8.7500000
  State 5 weight 0.047619  E = -13474.5464924081 S^2 = 8.7500000
  State 6 weight 0.047619  E = -13474.5454069742 S^2 = 8.7500000
  State 7 weight 0.047619  E = -13474.5452725191 S^2 = 8.7500000
  State 8 weight 0.047619  E = -13474.5443610015 S^2 = 8.7500000
  State 9 weight 0.047619  E = -13474.5440173535 S^2 = 8.7500000
  State 10 weight 0.047619  E = -13474.5437961126 S^2 = 8.7500000
  State 11 weight 0.047619  E = -13474.5134262348 S^2 = 8.7500000
  State 12 weight 0.047619  E = -13474.5130092258 S^2 = 8.7500000
  State 13 weight 0.047619  E = -13474.5127508611 S^2 = 8.7500000
  State 14 weight 0.047619  E = -13474.5123713873 S^2 = 8.7500000
  State 15 weight 0.047619  E = -13474.5122666965 S^2 = 8.7500000
  State 16 weight 0.047619  E = -13474.5115026816 S^2 = 8.7500000
  State 17 weight 0.047619  E = -13474.5114933206 S^2 = 8.7500000
  State 18 weight 0.047619  E = -13474.3932357684 S^2 = 8.7500000
  State 19 weight 0.047619  E = -13474.3859650055 S^2 = 8.7500000
  State 20 weight 0.047619  E = -13474.3858694186 S^2 = 8.7500000
sacasscf_nevpt2_casci_ver
CASCI

******** CASCI flags ********
CAS (7e+2e, 7o), ncore = 159, nvir = 864
natorb = False
canonicalization = True
sorting_mo_energy = False
max_memory 1021060 (MB)
******** <class 'pyscf.fci.addons.SpinPenaltyFCISolver'> ********
max. cycles = 200
conv_tol = 1e-08
davidson only = True
linear dependence = 1e-12
level shift = 0.001
max iter space = 12
max_memory 1021060 MB
nroots = 21
pspace_size = 400
spin = 5
DFCASCI/DFCASSCF: density fitting for JK matrix and 2e integral transformation

WARN: Mulitple states found in CASCI solver. First state is used to compute the Fock matrix and natural orbitals in active space.

Density matrix diagonal elements [1.44876009 1.32377655 1.02326986 1.1670623  1.40500949 1.29150956
 1.34061215]
CASCI converged
CASCI state   0  E = -13474.5508827248  E(CI) = -49.8162172863613  S^2 = 8.7500000
CASCI state   1  E = -13474.5508825149  E(CI) = -49.8162170764535  S^2 = 8.7500000
CASCI state   2  E = -13474.5471943651  E(CI) = -49.8125289267064  S^2 = 8.7500000
CASCI state   3  E = -13474.5471926939  E(CI) = -49.8125272554371  S^2 = 8.7500000
CASCI state   4  E = -13474.5465057197  E(CI) = -49.8118402812288  S^2 = 8.7500000
CASCI state   5  E = -13474.5464924080  E(CI) = -49.8118269696079  S^2 = 8.7500000
CASCI state   6  E = -13474.5454069742  E(CI) = -49.8107415357827  S^2 = 8.7500000
CASCI state   7  E = -13474.5452725190  E(CI) = -49.8106070806061  S^2 = 8.7500000
CASCI state   8  E = -13474.5443610015  E(CI) = -49.8096955630408  S^2 = 8.7500000
CASCI state   9  E = -13474.5440173535  E(CI) = -49.8093519150279  S^2 = 8.7500000
CASCI state  10  E = -13474.5437961125  E(CI) = -49.8091306741098  S^2 = 8.7500000
CASCI state  11  E = -13474.5134262348  E(CI) = -49.7787607963510  S^2 = 8.7500000
CASCI state  12  E = -13474.5130092257  E(CI) = -49.7783437873186  S^2 = 8.7500000
CASCI state  13  E = -13474.5127508611  E(CI) = -49.7780854226748  S^2 = 8.7500000
CASCI state  14  E = -13474.5123713873  E(CI) = -49.7777059488653  S^2 = 8.7500000
CASCI state  15  E = -13474.5122666965  E(CI) = -49.7776012580234  S^2 = 8.7500000
CASCI state  16  E = -13474.5115026816  E(CI) = -49.7768372431419  S^2 = 8.7500000
CASCI state  17  E = -13474.5114933205  E(CI) = -49.7768278821022  S^2 = 8.7500000
CASCI state  18  E = -13474.3932357683  E(CI) = -49.6585703299170  S^2 = 8.7500000
CASCI state  19  E = -13474.3859650055  E(CI) = -49.6512995670655  S^2 = 8.7500000
CASCI state  20  E = -13474.3858694186  E(CI) = -49.6512039801910  S^2 = 8.7500000

******** <class 'embed_sim.df.DFNEVPT'> ********
DFNEVPT2 (7e+2e, 7o), ncore = 159, nvir = 864
spin = 5  root = 0
Sr    (-1)',   E = -0.00621440225477
Si    (+1)',   E = -0.00039709945314
Sijrs (0)  ,   E = -6.05700369409110
Sijr  (+1) ,   E = -0.12782309016604
Srsi  (-1) ,   E = -0.57213484289874
Srs   (-2) ,   E = -0.22987130864568
Sij   (+2) ,   E = -0.01835605688624
Sir   (0)' ,   E = -0.14364007899211
Nevpt2 Energy = -7.155440573387810

******** <class 'embed_sim.df.DFNEVPT'> ********
DFNEVPT2 (7e+2e, 7o), ncore = 159, nvir = 864
spin = 5  root = 1
Sr    (-1)',   E = -0.00621431528752
Si    (+1)',   E = -0.00039709270151
Sijrs (0)  ,   E = -6.05700358226553
Sijr  (+1) ,   E = -0.12782337125855
Srsi  (-1) ,   E = -0.57213117308106
Srs   (-2) ,   E = -0.22986948129974
Sij   (+2) ,   E = -0.01835603457076
Sir   (0)' ,   E = -0.14364010096618
Nevpt2 Energy = -7.155435151430858

******** <class 'embed_sim.df.DFNEVPT'> ********
DFNEVPT2 (7e+2e, 7o), ncore = 159, nvir = 864
spin = 5  root = 2
Sr    (-1)',   E = -0.00619012081674
Si    (+1)',   E = -0.00039360060233
Sijrs (0)  ,   E = -6.05698512372708
Sijr  (+1) ,   E = -0.12744412492956
Srsi  (-1) ,   E = -0.57251892266095
Srs   (-2) ,   E = -0.22993818662534
Sij   (+2) ,   E = -0.01836084404163
Sir   (0)' ,   E = -0.14342147618374
Nevpt2 Energy = -7.155252399587379

******** <class 'embed_sim.df.DFNEVPT'> ********
DFNEVPT2 (7e+2e, 7o), ncore = 159, nvir = 864
spin = 5  root = 3
Sr    (-1)',   E = -0.00618967844410
Si    (+1)',   E = -0.00039366666424
Sijrs (0)  ,   E = -6.05698492240808
Sijr  (+1) ,   E = -0.12744677355839
Srsi  (-1) ,   E = -0.57249552802105
Srs   (-2) ,   E = -0.22992791023608
Sij   (+2) ,   E = -0.01836067152020
Sir   (0)' ,   E = -0.14342318734095
Nevpt2 Energy = -7.155222338193083

******** <class 'embed_sim.df.DFNEVPT'> ********
DFNEVPT2 (7e+2e, 7o), ncore = 159, nvir = 864
spin = 5  root = 4
Sr    (-1)',   E = -0.00620941979923
Si    (+1)',   E = -0.00040728368172
Sijrs (0)  ,   E = -6.05704791913666
Sijr  (+1) ,   E = -0.12749090858191
Srsi  (-1) ,   E = -0.57263209386840
Srs   (-2) ,   E = -0.23009793245211
Sij   (+2) ,   E = -0.01837181683456
Sir   (0)' ,   E = -0.14345618929764
Nevpt2 Energy = -7.155713563652230

******** <class 'embed_sim.df.DFNEVPT'> ********
DFNEVPT2 (7e+2e, 7o), ncore = 159, nvir = 864
spin = 5  root = 5
Sr    (-1)',   E = -0.00621183121018
Si    (+1)',   E = -0.00040723152792
Sijrs (0)  ,   E = -6.05704892218735
Sijr  (+1) ,   E = -0.12748019099665
Srsi  (-1) ,   E = -0.57272605650306
Srs   (-2) ,   E = -0.23013899293525
Sij   (+2) ,   E = -0.01837232448916
Sir   (0)' ,   E = -0.14345064886234
Nevpt2 Energy = -7.155836198711905

******** <class 'embed_sim.df.DFNEVPT'> ********
DFNEVPT2 (7e+2e, 7o), ncore = 159, nvir = 864
spin = 5  root = 6
Sr    (-1)',   E = -0.00621030398671
Si    (+1)',   E = -0.00040986166730
Sijrs (0)  ,   E = -6.05709049770251
Sijr  (+1) ,   E = -0.12731078932981
Srsi  (-1) ,   E = -0.57282067376367
Srs   (-2) ,   E = -0.23011169523022
Sij   (+2) ,   E = -0.01836910514930
Sir   (0)' ,   E = -0.14328680385745
Nevpt2 Energy = -7.155609730686968

******** <class 'embed_sim.df.DFNEVPT'> ********
DFNEVPT2 (7e+2e, 7o), ncore = 159, nvir = 864
spin = 5  root = 7
Sr    (-1)',   E = -0.00620362550473
Si    (+1)',   E = -0.00041054320835
Sijrs (0)  ,   E = -6.05708501243383
Sijr  (+1) ,   E = -0.12731076278792
Srsi  (-1) ,   E = -0.57268880429227
Srs   (-2) ,   E = -0.23004299738740
Sij   (+2) ,   E = -0.01836890253767
Sir   (0)' ,   E = -0.14327798947150
Nevpt2 Energy = -7.155388637623655

******** <class 'embed_sim.df.DFNEVPT'> ********
DFNEVPT2 (7e+2e, 7o), ncore = 159, nvir = 864
spin = 5  root = 8
Sr    (-1)',   E = -0.00621657063933
Si    (+1)',   E = -0.00041941774788
Sijrs (0)  ,   E = -6.05710823074491
Sijr  (+1) ,   E = -0.12713277291215
Srsi  (-1) ,   E = -0.57277312643110
Srs   (-2) ,   E = -0.22997958429167
Sij   (+2) ,   E = -0.01837967104238
Sir   (0)' ,   E = -0.14311659428187
Nevpt2 Energy = -7.155125968091281

******** <class 'embed_sim.df.DFNEVPT'> ********
DFNEVPT2 (7e+2e, 7o), ncore = 159, nvir = 864
spin = 5  root = 9
Sr    (-1)',   E = -0.00622521424120
Si    (+1)',   E = -0.00042103674721
Sijrs (0)  ,   E = -6.05708644170058
Sijr  (+1) ,   E = -0.12709092400054
Srsi  (-1) ,   E = -0.57277021237639
Srs   (-2) ,   E = -0.23000835167441
Sij   (+2) ,   E = -0.01839598842738
Sir   (0)' ,   E = -0.14302456108802
Nevpt2 Energy = -7.155022730255719

******** <class 'embed_sim.df.DFNEVPT'> ********
DFNEVPT2 (7e+2e, 7o), ncore = 159, nvir = 864
spin = 5  root = 10
Sr    (-1)',   E = -0.00623898712351
Si    (+1)',   E = -0.00042773455213
Sijrs (0)  ,   E = -6.05709157751564
Sijr  (+1) ,   E = -0.12705889866109
Srsi  (-1) ,   E = -0.57283465341179
Srs   (-2) ,   E = -0.23004491035290
Sij   (+2) ,   E = -0.01841342274751
Sir   (0)' ,   E = -0.14300428560919
Nevpt2 Energy = -7.155114469973757

******** <class 'embed_sim.df.DFNEVPT'> ********
DFNEVPT2 (7e+2e, 7o), ncore = 159, nvir = 864
spin = 5  root = 11
Sr    (-1)',   E = -0.00825921794988
Si    (+1)',   E = -0.00153274117972
Sijrs (0)  ,   E = -6.05705115011643
Sijr  (+1) ,   E = -0.12765462876868
Srsi  (-1) ,   E = -0.57291972239636
Srs   (-2) ,   E = -0.23256964468733
Sij   (+2) ,   E = -0.02091603828119
Sir   (0)' ,   E = -0.14393758688156
Nevpt2 Energy = -7.164840730261143

******** <class 'embed_sim.df.DFNEVPT'> ********
DFNEVPT2 (7e+2e, 7o), ncore = 159, nvir = 864
spin = 5  root = 12
Sr    (-1)',   E = -0.00824253018299
Si    (+1)',   E = -0.00152484938908
Sijrs (0)  ,   E = -6.05703745098762
Sijr  (+1) ,   E = -0.12753351694299
Srsi  (-1) ,   E = -0.57298071799145
Srs   (-2) ,   E = -0.23253297529281
Sij   (+2) ,   E = -0.02090479544884
Sir   (0)' ,   E = -0.14383380726508
Nevpt2 Energy = -7.164590643500865

******** <class 'embed_sim.df.DFNEVPT'> ********
DFNEVPT2 (7e+2e, 7o), ncore = 159, nvir = 864
spin = 5  root = 13
Sr    (-1)',   E = -0.00821959501795
Si    (+1)',   E = -0.00151602912809
Sijrs (0)  ,   E = -6.05702108447061
Sijr  (+1) ,   E = -0.12744694906228
Srsi  (-1) ,   E = -0.57301429329891
Srs   (-2) ,   E = -0.23249050455966
Sij   (+2) ,   E = -0.02089447366144
Sir   (0)' ,   E = -0.14376098185918
Nevpt2 Energy = -7.164363911058116

******** <class 'embed_sim.df.DFNEVPT'> ********
DFNEVPT2 (7e+2e, 7o), ncore = 159, nvir = 864
spin = 5  root = 14
Sr    (-1)',   E = -0.00827030098368
Si    (+1)',   E = -0.00153518894741
Sijrs (0)  ,   E = -6.05704397900228
Sijr  (+1) ,   E = -0.12748358879795
Srsi  (-1) ,   E = -0.57306402672561
Srs   (-2) ,   E = -0.23255045109513
Sij   (+2) ,   E = -0.02092495895060
Sir   (0)' ,   E = -0.14379046880959
Nevpt2 Energy = -7.164662963312252

******** <class 'embed_sim.df.DFNEVPT'> ********
DFNEVPT2 (7e+2e, 7o), ncore = 159, nvir = 864
spin = 5  root = 15
Sr    (-1)',   E = -0.00826251298593
Si    (+1)',   E = -0.00153372785606
Sijrs (0)  ,   E = -6.05703691267496
Sijr  (+1) ,   E = -0.12747877848793
Srsi  (-1) ,   E = -0.57299266260025
Srs   (-2) ,   E = -0.23251351756010
Sij   (+2) ,   E = -0.02092420935455
Sir   (0)' ,   E = -0.14377189899430
Nevpt2 Energy = -7.164514220514088

******** <class 'embed_sim.df.DFNEVPT'> ********
DFNEVPT2 (7e+2e, 7o), ncore = 159, nvir = 864
spin = 5  root = 16
Sr    (-1)',   E = -0.00829655831620
Si    (+1)',   E = -0.00153250249052
Sijrs (0)  ,   E = -6.05708347885674
Sijr  (+1) ,   E = -0.12731221051798
Srsi  (-1) ,   E = -0.57316705141480
Srs   (-2) ,   E = -0.23252335653820
Sij   (+2) ,   E = -0.02092199113679
Sir   (0)' ,   E = -0.14349728953077
Nevpt2 Energy = -7.164334438801998

******** <class 'embed_sim.df.DFNEVPT'> ********
DFNEVPT2 (7e+2e, 7o), ncore = 159, nvir = 864
spin = 5  root = 17
Sr    (-1)',   E = -0.00829409304347
Si    (+1)',   E = -0.00153236146932
Sijrs (0)  ,   E = -6.05708162619064
Sijr  (+1) ,   E = -0.12731440786790
Srsi  (-1) ,   E = -0.57311938459285
Srs   (-2) ,   E = -0.23249920175609
Sij   (+2) ,   E = -0.02092162042303
Sir   (0)' ,   E = -0.14349664235484
Nevpt2 Energy = -7.164259337698141

******** <class 'embed_sim.df.DFNEVPT'> ********
DFNEVPT2 (7e+2e, 7o), ncore = 159, nvir = 864
spin = 5  root = 18
Sr    (-1)',   E = -0.01792573236232
Si    (+1)',   E = -0.00222410531140
Sijrs (0)  ,   E = -6.05697519269885
Sijr  (+1) ,   E = -0.12840637261723
Srsi  (-1) ,   E = -0.57398636752311
Srs   (-2) ,   E = -0.23988103030254
Sij   (+2) ,   E = -0.02674736545855
Sir   (0)' ,   E = -0.15281060228795
Nevpt2 Energy = -7.198956768561962

******** <class 'embed_sim.df.DFNEVPT'> ********
DFNEVPT2 (7e+2e, 7o), ncore = 159, nvir = 864
spin = 5  root = 19
Sr    (-1)',   E = -0.01796724100239
Si    (+1)',   E = -0.00220793222428
Sijrs (0)  ,   E = -6.05712309989322
Sijr  (+1) ,   E = -0.12772420878640
Srsi  (-1) ,   E = -0.57460060984600
Srs   (-2) ,   E = -0.23995347426504
Sij   (+2) ,   E = -0.02675485707403
Sir   (0)' ,   E = -0.15220649651619
Nevpt2 Energy = -7.198537919607555

******** <class 'embed_sim.df.DFNEVPT'> ********
DFNEVPT2 (7e+2e, 7o), ncore = 159, nvir = 864
spin = 5  root = 20
Sr    (-1)',   E = -0.01792635756055
Si    (+1)',   E = -0.00220799930107
Sijrs (0)  ,   E = -6.05712737887404
Sijr  (+1) ,   E = -0.12764612523162
Srsi  (-1) ,   E = -0.57468864674176
Srs   (-2) ,   E = -0.23992858774784
Sij   (+2) ,   E = -0.02675272618881
Sir   (0)' ,   E = -0.15221304776300
Nevpt2 Energy = -7.198490869408698
SISO with density fitting
size of aux basis 12497
    CPU time for 2c2e     17.67 sec, wall time      0.53 sec
    CPU time for Cholesky 2c2e   2289.14 sec, wall time     59.94 sec
erifile 53083.757 MB, IO buf size 479.8848 MB
int3c2e [1/225], AO [0:3], nrow = 1485
    CPU time for gen CD eri [1/225]    275.06 sec, wall time      6.04 sec
int3c2e [2/225], AO [3:4], nrow = 1365
    CPU time for gen CD eri [2/225]     28.80 sec, wall time      0.48 sec
int3c2e [3/225], AO [4:5], nrow = 1521
    CPU time for gen CD eri [3/225]    138.70 sec, wall time      2.42 sec
int3c2e [4/225], AO [5:7], nrow = 1515
    CPU time for gen CD eri [4/225]    132.79 sec, wall time      2.50 sec
int3c2e [5/225], AO [7:8], nrow = 1017
    CPU time for gen CD eri [5/225]     93.80 sec, wall time      1.55 sec
int3c2e [6/225], AO [8:9], nrow = 1225
    CPU time for gen CD eri [6/225]    115.55 sec, wall time      2.05 sec
int3c2e [7/225], AO [9:11], nrow = 1463
    CPU time for gen CD eri [7/225]    136.92 sec, wall time      2.21 sec
int3c2e [8/225], AO [11:12], nrow = 1287
    CPU time for gen CD eri [8/225]    121.81 sec, wall time      2.19 sec
int3c2e [9/225], AO [12:13], nrow = 1525
    CPU time for gen CD eri [9/225]    158.74 sec, wall time      2.59 sec
int3c2e [10/225], AO [13:14], nrow = 1127
    CPU time for gen CD eri [10/225]     86.68 sec, wall time      1.55 sec
int3c2e [11/225], AO [14:15], nrow = 666
    CPU time for gen CD eri [11/225]     51.32 sec, wall time      0.91 sec
int3c2e [12/225], AO [15:16], nrow = 1557
    CPU time for gen CD eri [12/225]    164.05 sec, wall time      2.60 sec
int3c2e [13/225], AO [16:17], nrow = 1825
    CPU time for gen CD eri [13/225]    169.84 sec, wall time      2.83 sec
int3c2e [14/225], AO [17:18], nrow = 1337
    CPU time for gen CD eri [14/225]    117.21 sec, wall time      2.06 sec
int3c2e [15/225], AO [18:20], nrow = 985
    CPU time for gen CD eri [15/225]     86.51 sec, wall time      1.59 sec
int3c2e [16/225], AO [20:21], nrow = 806
    CPU time for gen CD eri [16/225]     73.83 sec, wall time      1.22 sec
int3c2e [17/225], AO [21:22], nrow = 1872
    CPU time for gen CD eri [17/225]    190.19 sec, wall time      3.04 sec
int3c2e [18/225], AO [22:23], nrow = 2175
    CPU time for gen CD eri [18/225]    201.38 sec, wall time      3.29 sec
int3c2e [19/225], AO [23:24], nrow = 1582
    CPU time for gen CD eri [19/225]    145.21 sec, wall time      2.45 sec
int3c2e [20/225], AO [24:25], nrow = 926
    CPU time for gen CD eri [20/225]     71.07 sec, wall time      1.25 sec
int3c2e [21/225], AO [25:26], nrow = 2142
    CPU time for gen CD eri [21/225]    213.33 sec, wall time      3.41 sec
int3c2e [22/225], AO [26:27], nrow = 2475
    CPU time for gen CD eri [22/225]    238.56 sec, wall time      3.87 sec
int3c2e [23/225], AO [27:28], nrow = 1792
    CPU time for gen CD eri [23/225]    156.25 sec, wall time      2.63 sec
int3c2e [24/225], AO [28:30], nrow = 1310
    CPU time for gen CD eri [24/225]    120.07 sec, wall time      2.10 sec
int3c2e [25/225], AO [30:31], nrow = 798
    CPU time for gen CD eri [25/225]     62.95 sec, wall time      1.17 sec
int3c2e [26/225], AO [31:32], nrow = 1623
    CPU time for gen CD eri [26/225]    167.92 sec, wall time      2.67 sec
int3c2e [27/225], AO [32:33], nrow = 1380
    CPU time for gen CD eri [27/225]    129.28 sec, wall time      2.13 sec
int3c2e [28/225], AO [33:34], nrow = 840
    CPU time for gen CD eri [28/225]     66.53 sec, wall time      1.28 sec
int3c2e [29/225], AO [34:35], nrow = 1707
    CPU time for gen CD eri [29/225]    175.33 sec, wall time      3.15 sec
int3c2e [30/225], AO [35:36], nrow = 1450
    CPU time for gen CD eri [30/225]    132.20 sec, wall time      2.39 sec
int3c2e [31/225], AO [36:38], nrow = 1475
    CPU time for gen CD eri [31/225]    146.95 sec, wall time      2.50 sec
int3c2e [32/225], AO [38:40], nrow = 1500
    CPU time for gen CD eri [32/225]    135.63 sec, wall time      2.28 sec
int3c2e [33/225], AO [40:42], nrow = 1525
    CPU time for gen CD eri [33/225]    140.86 sec, wall time      2.39 sec
int3c2e [34/225], AO [42:43], nrow = 927
    CPU time for gen CD eri [34/225]     83.28 sec, wall time      1.51 sec
int3c2e [35/225], AO [43:44], nrow = 1881
    CPU time for gen CD eri [35/225]    191.13 sec, wall time      3.08 sec
int3c2e [36/225], AO [44:45], nrow = 1595
    CPU time for gen CD eri [36/225]    147.75 sec, wall time      2.67 sec
int3c2e [37/225], AO [45:46], nrow = 645
    CPU time for gen CD eri [37/225]     45.49 sec, wall time      0.85 sec
int3c2e [38/225], AO [46:47], nrow = 975
    CPU time for gen CD eri [38/225]     97.44 sec, wall time      1.60 sec
int3c2e [39/225], AO [47:48], nrow = 655
    CPU time for gen CD eri [39/225]     59.06 sec, wall time      1.02 sec
int3c2e [40/225], AO [48:49], nrow = 990
    CPU time for gen CD eri [40/225]     97.21 sec, wall time      1.62 sec
int3c2e [41/225], AO [49:50], nrow = 665
    CPU time for gen CD eri [41/225]     59.25 sec, wall time      1.00 sec
int3c2e [42/225], AO [50:51], nrow = 1005
    CPU time for gen CD eri [42/225]     96.98 sec, wall time      1.69 sec
int3c2e [43/225], AO [51:52], nrow = 1014
    CPU time for gen CD eri [43/225]     98.15 sec, wall time      1.93 sec
int3c2e [44/225], AO [52:53], nrow = 2055
    CPU time for gen CD eri [44/225]    209.89 sec, wall time      3.39 sec
int3c2e [45/225], AO [53:54], nrow = 1740
    CPU time for gen CD eri [45/225]    158.96 sec, wall time      2.64 sec
int3c2e [46/225], AO [54:55], nrow = 703
    CPU time for gen CD eri [46/225]     52.52 sec, wall time      0.97 sec
int3c2e [47/225], AO [55:56], nrow = 1062
    CPU time for gen CD eri [47/225]    104.71 sec, wall time      1.66 sec
int3c2e [48/225], AO [56:57], nrow = 713
    CPU time for gen CD eri [48/225]     64.68 sec, wall time      1.08 sec
int3c2e [49/225], AO [57:58], nrow = 1077
    CPU time for gen CD eri [49/225]    105.30 sec, wall time      1.69 sec
int3c2e [50/225], AO [58:59], nrow = 723
    CPU time for gen CD eri [50/225]     66.17 sec, wall time      1.10 sec
int3c2e [51/225], AO [59:60], nrow = 1092
    CPU time for gen CD eri [51/225]    104.81 sec, wall time      1.88 sec
int3c2e [52/225], AO [60:61], nrow = 1101
    CPU time for gen CD eri [52/225]    108.19 sec, wall time      1.77 sec
int3c2e [53/225], AO [61:62], nrow = 2229
    CPU time for gen CD eri [53/225]    226.59 sec, wall time      3.64 sec
int3c2e [54/225], AO [62:63], nrow = 1885
    CPU time for gen CD eri [54/225]    176.65 sec, wall time      2.94 sec
int3c2e [55/225], AO [63:64], nrow = 1143
    CPU time for gen CD eri [55/225]     95.77 sec, wall time      1.66 sec
int3c2e [56/225], AO [64:65], nrow = 2313
    CPU time for gen CD eri [56/225]    238.19 sec, wall time      4.10 sec
int3c2e [57/225], AO [65:66], nrow = 1955
    CPU time for gen CD eri [57/225]    178.18 sec, wall time      2.97 sec
int3c2e [58/225], AO [66:67], nrow = 789
    CPU time for gen CD eri [58/225]     56.45 sec, wall time      1.04 sec
int3c2e [59/225], AO [67:68], nrow = 1191
    CPU time for gen CD eri [59/225]    118.86 sec, wall time      1.91 sec
int3c2e [60/225], AO [68:69], nrow = 799
    CPU time for gen CD eri [60/225]     71.86 sec, wall time      1.22 sec
int3c2e [61/225], AO [69:70], nrow = 1206
    CPU time for gen CD eri [61/225]    118.03 sec, wall time      1.90 sec
int3c2e [62/225], AO [70:71], nrow = 809
    CPU time for gen CD eri [62/225]     71.58 sec, wall time      1.20 sec
int3c2e [63/225], AO [71:72], nrow = 1221
    CPU time for gen CD eri [63/225]    122.84 sec, wall time      1.98 sec
int3c2e [64/225], AO [72:73], nrow = 1230
    CPU time for gen CD eri [64/225]    115.33 sec, wall time      1.89 sec
int3c2e [65/225], AO [73:74], nrow = 2487
    CPU time for gen CD eri [65/225]    264.96 sec, wall time      4.19 sec
int3c2e [66/225], AO [74:75], nrow = 2100
    CPU time for gen CD eri [66/225]    180.17 sec, wall time      3.07 sec
int3c2e [67/225], AO [75:76], nrow = 847
    CPU time for gen CD eri [67/225]     59.84 sec, wall time      1.54 sec
int3c2e [68/225], AO [76:77], nrow = 1278
    CPU time for gen CD eri [68/225]    124.97 sec, wall time      2.79 sec
int3c2e [69/225], AO [77:78], nrow = 857
    CPU time for gen CD eri [69/225]     76.44 sec, wall time      1.27 sec
int3c2e [70/225], AO [78:79], nrow = 1293
    CPU time for gen CD eri [70/225]    126.74 sec, wall time      2.03 sec
int3c2e [71/225], AO [79:80], nrow = 867
    CPU time for gen CD eri [71/225]     73.87 sec, wall time      1.56 sec
int3c2e [72/225], AO [80:81], nrow = 1308
    CPU time for gen CD eri [72/225]    129.58 sec, wall time      2.50 sec
int3c2e [73/225], AO [81:82], nrow = 1317
    CPU time for gen CD eri [73/225]    130.16 sec, wall time      2.10 sec
int3c2e [74/225], AO [82:83], nrow = 2661
    CPU time for gen CD eri [74/225]    274.73 sec, wall time      4.37 sec
int3c2e [75/225], AO [83:84], nrow = 2245
    CPU time for gen CD eri [75/225]    207.00 sec, wall time      3.50 sec
int3c2e [76/225], AO [84:85], nrow = 905
    CPU time for gen CD eri [76/225]     62.16 sec, wall time      1.28 sec
int3c2e [77/225], AO [85:86], nrow = 1365
    CPU time for gen CD eri [77/225]    140.26 sec, wall time      2.27 sec
int3c2e [78/225], AO [86:87], nrow = 915
    CPU time for gen CD eri [78/225]     78.96 sec, wall time      1.34 sec
int3c2e [79/225], AO [87:88], nrow = 1380
    CPU time for gen CD eri [79/225]    127.95 sec, wall time      2.98 sec
int3c2e [80/225], AO [88:89], nrow = 925
    CPU time for gen CD eri [80/225]     82.08 sec, wall time      1.91 sec
int3c2e [81/225], AO [89:90], nrow = 1395
    CPU time for gen CD eri [81/225]    136.81 sec, wall time      2.89 sec
int3c2e [82/225], AO [90:91], nrow = 1404
    CPU time for gen CD eri [82/225]    137.66 sec, wall time      2.23 sec
int3c2e [83/225], AO [91:92], nrow = 2835
    CPU time for gen CD eri [83/225]    292.43 sec, wall time      4.63 sec
int3c2e [84/225], AO [92:93], nrow = 2390
    CPU time for gen CD eri [84/225]    224.11 sec, wall time      3.74 sec
int3c2e [85/225], AO [93:94], nrow = 1930
    CPU time for gen CD eri [85/225]    163.77 sec, wall time      2.80 sec
int3c2e [86/225], AO [94:95], nrow = 4401
    CPU time for gen CD eri [86/225]    441.37 sec, wall time      6.98 sec
int3c2e [87/225], AO [95:96], nrow = 4985
    CPU time for gen CD eri [87/225]    460.56 sec, wall time      8.41 sec
int3c2e [88/225], AO [96:97], nrow = 3549
    CPU time for gen CD eri [88/225]    303.99 sec, wall time      5.35 sec
int3c2e [89/225], AO [97:98], nrow = 2050
    CPU time for gen CD eri [89/225]    177.51 sec, wall time      3.29 sec
int3c2e [90/225], AO [98:99], nrow = 4671
    CPU time for gen CD eri [90/225]    481.67 sec, wall time      7.63 sec
int3c2e [91/225], AO [99:100], nrow = 5285
    CPU time for gen CD eri [91/225]    485.27 sec, wall time      8.02 sec
int3c2e [92/225], AO [100:101], nrow = 3759
    CPU time for gen CD eri [92/225]    332.82 sec, wall time      6.64 sec
int3c2e [93/225], AO [101:102], nrow = 2170
    CPU time for gen CD eri [93/225]    174.33 sec, wall time      3.20 sec
int3c2e [94/225], AO [102:103], nrow = 4941
    CPU time for gen CD eri [94/225]    480.32 sec, wall time     10.75 sec
int3c2e [95/225], AO [103:104], nrow = 5585
    CPU time for gen CD eri [95/225]    525.01 sec, wall time      8.58 sec
int3c2e [96/225], AO [104:105], nrow = 3969
    CPU time for gen CD eri [96/225]    333.59 sec, wall time      6.45 sec
int3c2e [97/225], AO [105:106], nrow = 1143
    CPU time for gen CD eri [97/225]     82.06 sec, wall time      1.47 sec
int3c2e [98/225], AO [106:107], nrow = 1722
    CPU time for gen CD eri [98/225]    164.85 sec, wall time      3.40 sec
int3c2e [99/225], AO [107:108], nrow = 2310
    CPU time for gen CD eri [99/225]    226.12 sec, wall time      3.63 sec
int3c2e [100/225], AO [108:109], nrow = 5256
    CPU time for gen CD eri [100/225]    533.80 sec, wall time      9.65 sec
int3c2e [101/225], AO [109:110], nrow = 5935
    CPU time for gen CD eri [101/225]    553.38 sec, wall time      9.15 sec
int3c2e [102/225], AO [110:111], nrow = 4214
    CPU time for gen CD eri [102/225]    367.64 sec, wall time      6.24 sec
int3c2e [103/225], AO [111:112], nrow = 2430
    CPU time for gen CD eri [103/225]    198.50 sec, wall time      3.49 sec
int3c2e [104/225], AO [112:113], nrow = 5526
    CPU time for gen CD eri [104/225]    556.18 sec, wall time      8.99 sec
int3c2e [105/225], AO [113:114], nrow = 6235
    CPU time for gen CD eri [105/225]    577.46 sec, wall time      9.57 sec
int3c2e [106/225], AO [114:115], nrow = 4424
    CPU time for gen CD eri [106/225]    367.94 sec, wall time      6.46 sec
int3c2e [107/225], AO [115:116], nrow = 1273
    CPU time for gen CD eri [107/225]     88.21 sec, wall time      1.98 sec
int3c2e [108/225], AO [116:117], nrow = 1917
    CPU time for gen CD eri [108/225]    182.35 sec, wall time      4.12 sec
int3c2e [109/225], AO [117:118], nrow = 1926
    CPU time for gen CD eri [109/225]    189.78 sec, wall time      3.04 sec
int3c2e [110/225], AO [118:119], nrow = 3879
    CPU time for gen CD eri [110/225]    382.56 sec, wall time      6.08 sec
int3c2e [111/225], AO [119:120], nrow = 3260
    CPU time for gen CD eri [111/225]    298.11 sec, wall time      6.56 sec
int3c2e [112/225], AO [120:121], nrow = 1968
    CPU time for gen CD eri [112/225]    178.41 sec, wall time      2.99 sec
int3c2e [113/225], AO [121:122], nrow = 3963
    CPU time for gen CD eri [113/225]    375.50 sec, wall time      6.22 sec
int3c2e [114/225], AO [122:123], nrow = 3330
    CPU time for gen CD eri [114/225]    330.06 sec, wall time      5.44 sec
int3c2e [115/225], AO [123:124], nrow = 1339
    CPU time for gen CD eri [115/225]    104.62 sec, wall time      1.90 sec
int3c2e [116/225], AO [124:125], nrow = 2016
    CPU time for gen CD eri [116/225]    185.83 sec, wall time      4.21 sec
int3c2e [117/225], AO [125:126], nrow = 1349
    CPU time for gen CD eri [117/225]    123.80 sec, wall time      2.05 sec
int3c2e [118/225], AO [126:127], nrow = 2031
    CPU time for gen CD eri [118/225]    202.69 sec, wall time      3.27 sec
int3c2e [119/225], AO [127:128], nrow = 1359
    CPU time for gen CD eri [119/225]    120.53 sec, wall time      2.05 sec
int3c2e [120/225], AO [128:129], nrow = 2046
    CPU time for gen CD eri [120/225]    199.09 sec, wall time      3.21 sec
int3c2e [121/225], AO [129:130], nrow = 2055
    CPU time for gen CD eri [121/225]    192.05 sec, wall time      3.15 sec
int3c2e [122/225], AO [130:131], nrow = 4137
    CPU time for gen CD eri [122/225]    426.45 sec, wall time      6.88 sec
int3c2e [123/225], AO [131:132], nrow = 3475
    CPU time for gen CD eri [123/225]    316.64 sec, wall time      5.30 sec
int3c2e [124/225], AO [132:133], nrow = 1397
    CPU time for gen CD eri [124/225]    102.06 sec, wall time      1.86 sec
int3c2e [125/225], AO [133:134], nrow = 2103
    CPU time for gen CD eri [125/225]    208.57 sec, wall time      3.34 sec
int3c2e [126/225], AO [134:135], nrow = 1407
    CPU time for gen CD eri [126/225]    120.51 sec, wall time      2.07 sec
int3c2e [127/225], AO [135:136], nrow = 2118
    CPU time for gen CD eri [127/225]    202.83 sec, wall time      3.64 sec
int3c2e [128/225], AO [136:137], nrow = 1417
    CPU time for gen CD eri [128/225]    126.16 sec, wall time      2.47 sec
int3c2e [129/225], AO [137:138], nrow = 2133
    CPU time for gen CD eri [129/225]    214.89 sec, wall time      3.44 sec
int3c2e [130/225], AO [138:139], nrow = 2142
    CPU time for gen CD eri [130/225]    205.70 sec, wall time      3.36 sec
int3c2e [131/225], AO [139:140], nrow = 4311
    CPU time for gen CD eri [131/225]    414.59 sec, wall time      8.97 sec
int3c2e [132/225], AO [140:141], nrow = 3620
    CPU time for gen CD eri [132/225]    327.13 sec, wall time      7.09 sec
int3c2e [133/225], AO [141:142], nrow = 1455
    CPU time for gen CD eri [133/225]    115.96 sec, wall time      2.12 sec
int3c2e [134/225], AO [142:143], nrow = 2190
    CPU time for gen CD eri [134/225]    205.93 sec, wall time      4.58 sec
int3c2e [135/225], AO [143:144], nrow = 1465
    CPU time for gen CD eri [135/225]    130.97 sec, wall time      2.99 sec
int3c2e [136/225], AO [144:145], nrow = 2205
    CPU time for gen CD eri [136/225]    218.44 sec, wall time      3.50 sec
int3c2e [137/225], AO [145:146], nrow = 1475
    CPU time for gen CD eri [137/225]    124.43 sec, wall time      2.90 sec
int3c2e [138/225], AO [146:147], nrow = 2220
    CPU time for gen CD eri [138/225]    213.29 sec, wall time      4.79 sec
int3c2e [139/225], AO [147:148], nrow = 2229
    CPU time for gen CD eri [139/225]    219.71 sec, wall time      3.56 sec
int3c2e [140/225], AO [148:149], nrow = 4485
    CPU time for gen CD eri [140/225]    463.15 sec, wall time      7.34 sec
int3c2e [141/225], AO [149:150], nrow = 3765
    CPU time for gen CD eri [141/225]    353.45 sec, wall time      6.25 sec
int3c2e [142/225], AO [150:151], nrow = 2271
    CPU time for gen CD eri [142/225]    182.71 sec, wall time      3.24 sec
int3c2e [143/225], AO [151:152], nrow = 4569
    CPU time for gen CD eri [143/225]    458.76 sec, wall time      7.27 sec
int3c2e [144/225], AO [152:153], nrow = 3835
    CPU time for gen CD eri [144/225]    336.32 sec, wall time      6.46 sec
int3c2e [145/225], AO [153:154], nrow = 1541
    CPU time for gen CD eri [145/225]    124.79 sec, wall time      2.35 sec
int3c2e [146/225], AO [154:155], nrow = 2319
    CPU time for gen CD eri [146/225]    238.19 sec, wall time      3.80 sec
int3c2e [147/225], AO [155:156], nrow = 1551
    CPU time for gen CD eri [147/225]    128.77 sec, wall time      2.25 sec
int3c2e [148/225], AO [156:157], nrow = 2334
    CPU time for gen CD eri [148/225]    225.53 sec, wall time      3.64 sec
int3c2e [149/225], AO [157:158], nrow = 1561
    CPU time for gen CD eri [149/225]    131.09 sec, wall time      3.19 sec
int3c2e [150/225], AO [158:159], nrow = 2349
    CPU time for gen CD eri [150/225]    238.76 sec, wall time      3.79 sec
int3c2e [151/225], AO [159:160], nrow = 2358
    CPU time for gen CD eri [151/225]    225.69 sec, wall time      3.69 sec
int3c2e [152/225], AO [160:161], nrow = 4743
    CPU time for gen CD eri [152/225]    483.47 sec, wall time      7.83 sec
int3c2e [153/225], AO [161:162], nrow = 3980
    CPU time for gen CD eri [153/225]    360.13 sec, wall time      6.08 sec
int3c2e [154/225], AO [162:163], nrow = 1599
    CPU time for gen CD eri [154/225]    113.08 sec, wall time      2.38 sec
int3c2e [155/225], AO [163:164], nrow = 2406
    CPU time for gen CD eri [155/225]    243.77 sec, wall time      3.89 sec
int3c2e [156/225], AO [164:165], nrow = 1609
    CPU time for gen CD eri [156/225]    138.71 sec, wall time      2.38 sec
int3c2e [157/225], AO [165:166], nrow = 2421
    CPU time for gen CD eri [157/225]    242.55 sec, wall time      3.90 sec
int3c2e [158/225], AO [166:167], nrow = 1619
    CPU time for gen CD eri [158/225]    138.80 sec, wall time      2.37 sec
int3c2e [159/225], AO [167:168], nrow = 2436
    CPU time for gen CD eri [159/225]    231.10 sec, wall time      5.23 sec
int3c2e [160/225], AO [168:169], nrow = 2445
    CPU time for gen CD eri [160/225]    244.64 sec, wall time      4.41 sec
int3c2e [161/225], AO [169:170], nrow = 4917
    CPU time for gen CD eri [161/225]    520.92 sec, wall time      8.28 sec
int3c2e [162/225], AO [170:171], nrow = 4125
    CPU time for gen CD eri [162/225]    354.09 sec, wall time      6.07 sec
int3c2e [163/225], AO [171:172], nrow = 1657
    CPU time for gen CD eri [163/225]    117.64 sec, wall time      2.93 sec
int3c2e [164/225], AO [172:173], nrow = 2493
    CPU time for gen CD eri [164/225]    248.92 sec, wall time      5.52 sec
int3c2e [165/225], AO [173:174], nrow = 1667
    CPU time for gen CD eri [165/225]    141.46 sec, wall time      3.03 sec
int3c2e [166/225], AO [174:175], nrow = 2508
    CPU time for gen CD eri [166/225]    252.60 sec, wall time      4.17 sec
int3c2e [167/225], AO [175:176], nrow = 1677
    CPU time for gen CD eri [167/225]    147.12 sec, wall time      2.54 sec
int3c2e [168/225], AO [176:177], nrow = 2523
    CPU time for gen CD eri [168/225]    241.81 sec, wall time      5.42 sec
int3c2e [169/225], AO [177:178], nrow = 2532
    CPU time for gen CD eri [169/225]    247.71 sec, wall time      4.52 sec
int3c2e [170/225], AO [178:179], nrow = 5091
    CPU time for gen CD eri [170/225]    515.11 sec, wall time      9.96 sec
int3c2e [171/225], AO [179:180], nrow = 4270
    CPU time for gen CD eri [171/225]    391.76 sec, wall time      6.57 sec
int3c2e [172/225], AO [180:181], nrow = 2574
    CPU time for gen CD eri [172/225]    209.78 sec, wall time      3.66 sec
int3c2e [173/225], AO [181:182], nrow = 5175
    CPU time for gen CD eri [173/225]    525.38 sec, wall time      9.80 sec
int3c2e [174/225], AO [182:183], nrow = 4340
    CPU time for gen CD eri [174/225]    392.16 sec, wall time      6.70 sec
int3c2e [175/225], AO [183:184], nrow = 1743
    CPU time for gen CD eri [175/225]    126.44 sec, wall time      2.23 sec
int3c2e [176/225], AO [184:185], nrow = 2622
    CPU time for gen CD eri [176/225]    258.69 sec, wall time      4.15 sec
int3c2e [177/225], AO [185:186], nrow = 1753
    CPU time for gen CD eri [177/225]    155.33 sec, wall time      2.64 sec
int3c2e [178/225], AO [186:187], nrow = 2637
    CPU time for gen CD eri [178/225]    258.05 sec, wall time      4.15 sec
int3c2e [179/225], AO [187:188], nrow = 1763
    CPU time for gen CD eri [179/225]    147.81 sec, wall time      3.44 sec
int3c2e [180/225], AO [188:189], nrow = 2652
    CPU time for gen CD eri [180/225]    265.31 sec, wall time      4.77 sec
int3c2e [181/225], AO [189:190], nrow = 2661
    CPU time for gen CD eri [181/225]    256.53 sec, wall time      4.21 sec
int3c2e [182/225], AO [190:191], nrow = 5349
    CPU time for gen CD eri [182/225]    521.07 sec, wall time     11.38 sec
int3c2e [183/225], AO [191:192], nrow = 4485
    CPU time for gen CD eri [183/225]    428.30 sec, wall time      7.01 sec
int3c2e [184/225], AO [192:193], nrow = 1801
    CPU time for gen CD eri [184/225]    140.96 sec, wall time      2.57 sec
int3c2e [185/225], AO [193:194], nrow = 2709
[...]
    CPU time for 2e SOC J/K1/K2 integrals [561/743]     35.62 sec, wall time      1.75 sec
    CPU time for 2e SOC J/K1/K2 integrals [562/743]     35.56 sec, wall time      1.76 sec
    CPU time for 2e SOC J/K1/K2 integrals [563/743]     36.38 sec, wall time      1.77 sec
    CPU time for 2e SOC J/K1/K2 integrals [564/743]     35.53 sec, wall time      1.75 sec
    CPU time for 2e SOC J/K1/K2 integrals [565/743]     35.36 sec, wall time      1.77 sec
    CPU time for 2e SOC J/K1/K2 integrals [566/743]     35.89 sec, wall time      1.78 sec
    CPU time for 2e SOC J/K1/K2 integrals [567/743]     35.14 sec, wall time      1.78 sec
    CPU time for 2e SOC J/K1/K2 integrals [568/743]     35.79 sec, wall time      1.77 sec
    CPU time for 2e SOC J/K1/K2 integrals [569/743]     35.38 sec, wall time      1.77 sec
    CPU time for 2e SOC J/K1/K2 integrals [570/743]     35.89 sec, wall time      1.78 sec
    CPU time for 2e SOC J/K1/K2 integrals [571/743]     35.98 sec, wall time      1.78 sec
    CPU time for 2e SOC J/K1/K2 integrals [572/743]     35.70 sec, wall time      1.77 sec
    CPU time for 2e SOC J/K1/K2 integrals [573/743]     35.57 sec, wall time      1.77 sec
    CPU time for 2e SOC J/K1/K2 integrals [574/743]     35.73 sec, wall time      1.78 sec
    CPU time for 2e SOC J/K1/K2 integrals [575/743]     36.23 sec, wall time      1.78 sec
    CPU time for 2e SOC J/K1/K2 integrals [576/743]     36.27 sec, wall time      1.78 sec
    CPU time for 2e SOC J/K1/K2 integrals [577/743]     35.47 sec, wall time      1.78 sec
    CPU time for 2e SOC J/K1/K2 integrals [578/743]     35.63 sec, wall time      1.77 sec
    CPU time for 2e SOC J/K1/K2 integrals [579/743]     36.02 sec, wall time      1.78 sec
    CPU time for 2e SOC J/K1/K2 integrals [580/743]     36.02 sec, wall time      1.77 sec
    CPU time for 2e SOC J/K1/K2 integrals [581/743]     36.20 sec, wall time      1.78 sec
    CPU time for 2e SOC J/K1/K2 integrals [582/743]     36.20 sec, wall time      1.78 sec
    CPU time for 2e SOC J/K1/K2 integrals [583/743]     35.65 sec, wall time      1.77 sec
    CPU time for 2e SOC J/K1/K2 integrals [584/743]     35.43 sec, wall time      1.77 sec
    CPU time for 2e SOC J/K1/K2 integrals [585/743]     35.61 sec, wall time      1.77 sec
    CPU time for 2e SOC J/K1/K2 integrals [586/743]     35.91 sec, wall time      1.78 sec
    CPU time for 2e SOC J/K1/K2 integrals [587/743]     35.36 sec, wall time      1.76 sec
    CPU time for 2e SOC J/K1/K2 integrals [588/743]     36.06 sec, wall time      1.78 sec
    CPU time for 2e SOC J/K1/K2 integrals [589/743]     35.44 sec, wall time      1.77 sec
    CPU time for 2e SOC J/K1/K2 integrals [590/743]     35.97 sec, wall time      1.79 sec
    CPU time for 2e SOC J/K1/K2 integrals [591/743]     35.29 sec, wall time      1.76 sec
    CPU time for 2e SOC J/K1/K2 integrals [592/743]     36.60 sec, wall time      1.77 sec
    CPU time for 2e SOC J/K1/K2 integrals [593/743]     35.37 sec, wall time      1.77 sec
    CPU time for 2e SOC J/K1/K2 integrals [594/743]     36.63 sec, wall time      1.79 sec
    CPU time for 2e SOC J/K1/K2 integrals [595/743]     36.06 sec, wall time      1.78 sec
    CPU time for 2e SOC J/K1/K2 integrals [596/743]     35.65 sec, wall time      1.77 sec
    CPU time for 2e SOC J/K1/K2 integrals [597/743]     35.47 sec, wall time      1.77 sec
    CPU time for 2e SOC J/K1/K2 integrals [598/743]     36.07 sec, wall time      1.78 sec
    CPU time for 2e SOC J/K1/K2 integrals [599/743]     35.55 sec, wall time      1.78 sec
    CPU time for 2e SOC J/K1/K2 integrals [600/743]     35.68 sec, wall time      1.78 sec
    CPU time for 2e SOC J/K1/K2 integrals [601/743]     35.55 sec, wall time      1.78 sec
    CPU time for 2e SOC J/K1/K2 integrals [602/743]     35.95 sec, wall time      1.78 sec
    CPU time for 2e SOC J/K1/K2 integrals [603/743]     35.31 sec, wall time      1.78 sec
    CPU time for 2e SOC J/K1/K2 integrals [604/743]     35.84 sec, wall time      1.78 sec
    CPU time for 2e SOC J/K1/K2 integrals [605/743]     35.42 sec, wall time      1.77 sec
    CPU time for 2e SOC J/K1/K2 integrals [606/743]     36.02 sec, wall time      1.78 sec
    CPU time for 2e SOC J/K1/K2 integrals [607/743]     36.40 sec, wall time      1.80 sec
    CPU time for 2e SOC J/K1/K2 integrals [608/743]     35.19 sec, wall time      1.77 sec
    CPU time for 2e SOC J/K1/K2 integrals [609/743]     36.10 sec, wall time      1.78 sec
    CPU time for 2e SOC J/K1/K2 integrals [610/743]     36.38 sec, wall time      1.78 sec
    CPU time for 2e SOC J/K1/K2 integrals [611/743]     36.05 sec, wall time      1.79 sec
    CPU time for 2e SOC J/K1/K2 integrals [612/743]     35.68 sec, wall time      1.78 sec
    CPU time for 2e SOC J/K1/K2 integrals [613/743]     35.61 sec, wall time      1.78 sec
    CPU time for 2e SOC J/K1/K2 integrals [614/743]     36.19 sec, wall time      1.79 sec
    CPU time for 2e SOC J/K1/K2 integrals [615/743]     35.41 sec, wall time      1.77 sec
    CPU time for 2e SOC J/K1/K2 integrals [616/743]     35.32 sec, wall time      1.78 sec
    CPU time for 2e SOC J/K1/K2 integrals [617/743]     36.89 sec, wall time      1.80 sec
    CPU time for 2e SOC J/K1/K2 integrals [618/743]     36.01 sec, wall time      1.79 sec
    CPU time for 2e SOC J/K1/K2 integrals [619/743]     35.69 sec, wall time      1.78 sec
    CPU time for 2e SOC J/K1/K2 integrals [620/743]     35.97 sec, wall time      1.79 sec
    CPU time for 2e SOC J/K1/K2 integrals [621/743]     35.99 sec, wall time      1.79 sec
    CPU time for 2e SOC J/K1/K2 integrals [622/743]     35.79 sec, wall time      1.79 sec
    CPU time for 2e SOC J/K1/K2 integrals [623/743]     35.54 sec, wall time      1.75 sec
    CPU time for 2e SOC J/K1/K2 integrals [624/743]     35.78 sec, wall time      1.76 sec
    CPU time for 2e SOC J/K1/K2 integrals [625/743]     35.78 sec, wall time      1.75 sec
    CPU time for 2e SOC J/K1/K2 integrals [626/743]     35.62 sec, wall time      1.75 sec
    CPU time for 2e SOC J/K1/K2 integrals [627/743]     35.95 sec, wall time      1.76 sec
    CPU time for 2e SOC J/K1/K2 integrals [628/743]     35.43 sec, wall time      1.76 sec
    CPU time for 2e SOC J/K1/K2 integrals [629/743]     36.05 sec, wall time      1.77 sec
    CPU time for 2e SOC J/K1/K2 integrals [630/743]     35.93 sec, wall time      1.77 sec
    CPU time for 2e SOC J/K1/K2 integrals [631/743]     35.71 sec, wall time      1.75 sec
    CPU time for 2e SOC J/K1/K2 integrals [632/743]     36.08 sec, wall time      1.76 sec
    CPU time for 2e SOC J/K1/K2 integrals [633/743]     35.97 sec, wall time      1.77 sec
    CPU time for 2e SOC J/K1/K2 integrals [634/743]     36.03 sec, wall time      1.77 sec
    CPU time for 2e SOC J/K1/K2 integrals [635/743]     36.06 sec, wall time      1.77 sec
    CPU time for 2e SOC J/K1/K2 integrals [636/743]     35.65 sec, wall time      1.76 sec
    CPU time for 2e SOC J/K1/K2 integrals [637/743]     35.32 sec, wall time      1.76 sec
    CPU time for 2e SOC J/K1/K2 integrals [638/743]     36.02 sec, wall time      1.77 sec
    CPU time for 2e SOC J/K1/K2 integrals [639/743]     35.69 sec, wall time      1.77 sec
    CPU time for 2e SOC J/K1/K2 integrals [640/743]     36.79 sec, wall time      1.78 sec
    CPU time for 2e SOC J/K1/K2 integrals [641/743]     36.06 sec, wall time      1.78 sec
    CPU time for 2e SOC J/K1/K2 integrals [642/743]     35.33 sec, wall time      1.77 sec
    CPU time for 2e SOC J/K1/K2 integrals [643/743]     35.71 sec, wall time      1.76 sec
    CPU time for 2e SOC J/K1/K2 integrals [644/743]     36.06 sec, wall time      1.78 sec
    CPU time for 2e SOC J/K1/K2 integrals [645/743]     35.66 sec, wall time      1.76 sec
    CPU time for 2e SOC J/K1/K2 integrals [646/743]     36.62 sec, wall time      1.78 sec
    CPU time for 2e SOC J/K1/K2 integrals [647/743]     36.42 sec, wall time      1.79 sec
    CPU time for 2e SOC J/K1/K2 integrals [648/743]     35.92 sec, wall time      1.77 sec
    CPU time for 2e SOC J/K1/K2 integrals [649/743]     36.48 sec, wall time      1.77 sec
    CPU time for 2e SOC J/K1/K2 integrals [650/743]     35.81 sec, wall time      1.77 sec
    CPU time for 2e SOC J/K1/K2 integrals [651/743]     36.06 sec, wall time      1.77 sec
    CPU time for 2e SOC J/K1/K2 integrals [652/743]     35.28 sec, wall time      1.76 sec
    CPU time for 2e SOC J/K1/K2 integrals [653/743]     35.78 sec, wall time      1.76 sec
    CPU time for 2e SOC J/K1/K2 integrals [654/743]     35.81 sec, wall time      1.77 sec
    CPU time for 2e SOC J/K1/K2 integrals [655/743]     35.85 sec, wall time      1.76 sec
    CPU time for 2e SOC J/K1/K2 integrals [656/743]     36.26 sec, wall time      1.77 sec
    CPU time for 2e SOC J/K1/K2 integrals [657/743]     35.98 sec, wall time      1.78 sec
    CPU time for 2e SOC J/K1/K2 integrals [658/743]     35.84 sec, wall time      1.77 sec
    CPU time for 2e SOC J/K1/K2 integrals [659/743]     36.20 sec, wall time      1.78 sec
    CPU time for 2e SOC J/K1/K2 integrals [660/743]     35.61 sec, wall time      1.77 sec
    CPU time for 2e SOC J/K1/K2 integrals [661/743]     35.78 sec, wall time      1.77 sec
    CPU time for 2e SOC J/K1/K2 integrals [662/743]     35.50 sec, wall time      1.75 sec
    CPU time for 2e SOC J/K1/K2 integrals [663/743]     35.69 sec, wall time      1.76 sec
    CPU time for 2e SOC J/K1/K2 integrals [664/743]     36.11 sec, wall time      1.76 sec
    CPU time for 2e SOC J/K1/K2 integrals [665/743]     35.95 sec, wall time      1.77 sec
    CPU time for 2e SOC J/K1/K2 integrals [666/743]     35.59 sec, wall time      1.76 sec
    CPU time for 2e SOC J/K1/K2 integrals [667/743]     35.72 sec, wall time      1.76 sec
    CPU time for 2e SOC J/K1/K2 integrals [668/743]     35.66 sec, wall time      1.78 sec
    CPU time for 2e SOC J/K1/K2 integrals [669/743]     35.65 sec, wall time      1.76 sec
    CPU time for 2e SOC J/K1/K2 integrals [670/743]     35.70 sec, wall time      1.77 sec
    CPU time for 2e SOC J/K1/K2 integrals [671/743]     36.16 sec, wall time      1.77 sec
    CPU time for 2e SOC J/K1/K2 integrals [672/743]     35.35 sec, wall time      1.76 sec
    CPU time for 2e SOC J/K1/K2 integrals [673/743]     35.64 sec, wall time      1.77 sec
    CPU time for 2e SOC J/K1/K2 integrals [674/743]     36.00 sec, wall time      1.77 sec
    CPU time for 2e SOC J/K1/K2 integrals [675/743]     36.51 sec, wall time      1.78 sec
    CPU time for 2e SOC J/K1/K2 integrals [676/743]     35.90 sec, wall time      1.77 sec
    CPU time for 2e SOC J/K1/K2 integrals [677/743]     35.69 sec, wall time      1.76 sec
    CPU time for 2e SOC J/K1/K2 integrals [678/743]     35.65 sec, wall time      1.77 sec
    CPU time for 2e SOC J/K1/K2 integrals [679/743]     35.48 sec, wall time      1.76 sec
    CPU time for 2e SOC J/K1/K2 integrals [680/743]     35.39 sec, wall time      1.76 sec
    CPU time for 2e SOC J/K1/K2 integrals [681/743]     35.60 sec, wall time      1.76 sec
    CPU time for 2e SOC J/K1/K2 integrals [682/743]     35.65 sec, wall time      1.76 sec
    CPU time for 2e SOC J/K1/K2 integrals [683/743]     35.24 sec, wall time      1.76 sec
    CPU time for 2e SOC J/K1/K2 integrals [684/743]     35.65 sec, wall time      1.76 sec
    CPU time for 2e SOC J/K1/K2 integrals [685/743]     35.40 sec, wall time      1.75 sec
    CPU time for 2e SOC J/K1/K2 integrals [686/743]     35.88 sec, wall time      1.76 sec
    CPU time for 2e SOC J/K1/K2 integrals [687/743]     35.71 sec, wall time      1.75 sec
    CPU time for 2e SOC J/K1/K2 integrals [688/743]     35.50 sec, wall time      1.76 sec
    CPU time for 2e SOC J/K1/K2 integrals [689/743]     35.66 sec, wall time      1.76 sec
    CPU time for 2e SOC J/K1/K2 integrals [690/743]     35.65 sec, wall time      1.76 sec
    CPU time for 2e SOC J/K1/K2 integrals [691/743]     35.84 sec, wall time      1.77 sec
    CPU time for 2e SOC J/K1/K2 integrals [692/743]     35.76 sec, wall time      1.76 sec
    CPU time for 2e SOC J/K1/K2 integrals [693/743]     35.47 sec, wall time      1.76 sec
    CPU time for 2e SOC J/K1/K2 integrals [694/743]     35.64 sec, wall time      1.81 sec
    CPU time for 2e SOC J/K1/K2 integrals [695/743]     35.80 sec, wall time      1.80 sec
    CPU time for 2e SOC J/K1/K2 integrals [696/743]     35.73 sec, wall time      1.76 sec
    CPU time for 2e SOC J/K1/K2 integrals [697/743]     35.65 sec, wall time      1.77 sec
    CPU time for 2e SOC J/K1/K2 integrals [698/743]     35.56 sec, wall time      1.77 sec
    CPU time for 2e SOC J/K1/K2 integrals [699/743]     35.83 sec, wall time      1.77 sec
    CPU time for 2e SOC J/K1/K2 integrals [700/743]     36.18 sec, wall time      1.76 sec
    CPU time for 2e SOC J/K1/K2 integrals [701/743]     36.43 sec, wall time      1.77 sec
    CPU time for 2e SOC J/K1/K2 integrals [702/743]     35.36 sec, wall time      1.76 sec
    CPU time for 2e SOC J/K1/K2 integrals [703/743]     35.70 sec, wall time      1.76 sec
    CPU time for 2e SOC J/K1/K2 integrals [704/743]     35.20 sec, wall time      1.75 sec
    CPU time for 2e SOC J/K1/K2 integrals [705/743]     36.39 sec, wall time      1.78 sec
    CPU time for 2e SOC J/K1/K2 integrals [706/743]     35.32 sec, wall time      1.75 sec
    CPU time for 2e SOC J/K1/K2 integrals [707/743]     35.53 sec, wall time      1.76 sec
    CPU time for 2e SOC J/K1/K2 integrals [708/743]     35.27 sec, wall time      1.76 sec
    CPU time for 2e SOC J/K1/K2 integrals [709/743]     35.96 sec, wall time      1.77 sec
    CPU time for 2e SOC J/K1/K2 integrals [710/743]     36.14 sec, wall time      1.78 sec
    CPU time for 2e SOC J/K1/K2 integrals [711/743]     35.95 sec, wall time      1.76 sec
    CPU time for 2e SOC J/K1/K2 integrals [712/743]     35.76 sec, wall time      1.76 sec
    CPU time for 2e SOC J/K1/K2 integrals [713/743]     35.69 sec, wall time      1.76 sec
    CPU time for 2e SOC J/K1/K2 integrals [714/743]     35.55 sec, wall time      1.76 sec
    CPU time for 2e SOC J/K1/K2 integrals [715/743]     35.50 sec, wall time      1.76 sec
    CPU time for 2e SOC J/K1/K2 integrals [716/743]     36.02 sec, wall time      1.77 sec
    CPU time for 2e SOC J/K1/K2 integrals [717/743]     35.94 sec, wall time      1.77 sec
    CPU time for 2e SOC J/K1/K2 integrals [718/743]     36.23 sec, wall time      1.77 sec
    CPU time for 2e SOC J/K1/K2 integrals [719/743]     35.53 sec, wall time      1.77 sec
    CPU time for 2e SOC J/K1/K2 integrals [720/743]     35.61 sec, wall time      1.76 sec
    CPU time for 2e SOC J/K1/K2 integrals [721/743]     35.49 sec, wall time      1.74 sec
    CPU time for 2e SOC J/K1/K2 integrals [722/743]     35.54 sec, wall time      1.75 sec
    CPU time for 2e SOC J/K1/K2 integrals [723/743]     35.55 sec, wall time      1.79 sec
    CPU time for 2e SOC J/K1/K2 integrals [724/743]     36.17 sec, wall time      1.77 sec
    CPU time for 2e SOC J/K1/K2 integrals [725/743]     35.96 sec, wall time      1.77 sec
    CPU time for 2e SOC J/K1/K2 integrals [726/743]     36.12 sec, wall time      1.78 sec
    CPU time for 2e SOC J/K1/K2 integrals [727/743]     35.22 sec, wall time      1.76 sec
    CPU time for 2e SOC J/K1/K2 integrals [728/743]     36.31 sec, wall time      1.77 sec
    CPU time for 2e SOC J/K1/K2 integrals [729/743]     35.49 sec, wall time      1.77 sec
    CPU time for 2e SOC J/K1/K2 integrals [730/743]     35.39 sec, wall time      1.76 sec
    CPU time for 2e SOC J/K1/K2 integrals [731/743]     35.65 sec, wall time      1.76 sec
    CPU time for 2e SOC J/K1/K2 integrals [732/743]     35.69 sec, wall time      1.76 sec
    CPU time for 2e SOC J/K1/K2 integrals [733/743]     36.24 sec, wall time      1.77 sec
    CPU time for 2e SOC J/K1/K2 integrals [734/743]     36.23 sec, wall time      1.77 sec
    CPU time for 2e SOC J/K1/K2 integrals [735/743]     35.28 sec, wall time      1.76 sec
    CPU time for 2e SOC J/K1/K2 integrals [736/743]     35.96 sec, wall time      1.78 sec
    CPU time for 2e SOC J/K1/K2 integrals [737/743]     35.65 sec, wall time      1.77 sec
    CPU time for 2e SOC J/K1/K2 integrals [738/743]     35.78 sec, wall time      1.76 sec
    CPU time for 2e SOC J/K1/K2 integrals [739/743]     35.86 sec, wall time      1.77 sec
    CPU time for 2e SOC J/K1/K2 integrals [740/743]     35.47 sec, wall time      1.77 sec
    CPU time for 2e SOC J/K1/K2 integrals [741/743]     35.68 sec, wall time      1.77 sec
    CPU time for 2e SOC J/K1/K2 integrals [742/743]     35.47 sec, wall time      1.77 sec
    CPU time for 2e SOC J/K1/K2 integrals [743/743]     26.98 sec, wall time      1.39 sec
    CPU time for 2e SOC J/K1/K2 integrals  26501.13 sec, wall time   1306.97 sec
state 0 energy 0.0
(S, MS, I), [5 1 0]	 coeff	 0.457+0.313j	 |coeff| ** 2	 0.306
(S, MS, I), [ 5 -1  1]	 coeff	 -0.445+0.329j	 |coeff| ** 2	 0.306
(S, MS, I), [5 3 1]	 coeff	 -0.105+0.384j	 |coeff| ** 2	 0.158
(S, MS, I), [ 5 -3  0]	 coeff	 0.119+0.379j	 |coeff| ** 2	 0.158
(S, MS, I), [5 5 0]	 coeff	 0.184-0.012j	 |coeff| ** 2	 0.034
(S, MS, I), [ 5 -5  1]	 coeff	 -0.184-0.005j	 |coeff| ** 2	 0.034
(S, MS, I), [5 1 1]	 coeff	 -0.012+0.014j	 |coeff| ** 2	 0.000
(S, MS, I), [5 3 0]	 coeff	 0.017+0.005j	 |coeff| ** 2	 0.000
(S, MS, I), [5 1 5]	 coeff	 -0.014-0.007j	 |coeff| ** 2	 0.000
(S, MS, I), [ 5 -1  4]	 coeff	 -0.013+0.007j	 |coeff| ** 2	 0.000
state 1 energy 2.3953321579028853e-06
(S, MS, I), [ 5 -1  0]	 coeff	 -0.436+0.341j	 |coeff| ** 2	 0.306
(S, MS, I), [5 1 1]	 coeff	 -0.465-0.300j	 |coeff| ** 2	 0.306
(S, MS, I), [ 5 -3  1]	 coeff	 -0.129-0.376j	 |coeff| ** 2	 0.158
(S, MS, I), [5 3 0]	 coeff	 -0.095+0.386j	 |coeff| ** 2	 0.158
(S, MS, I), [ 5 -5  0]	 coeff	 -0.184+0.000j	 |coeff| ** 2	 0.034
(S, MS, I), [5 5 1]	 coeff	 -0.183+0.016j	 |coeff| ** 2	 0.034
(S, MS, I), [ 5 -1  1]	 coeff	 0.013+0.014j	 |coeff| ** 2	 0.000
(S, MS, I), [ 5 -3  0]	 coeff	 0.016-0.006j	 |coeff| ** 2	 0.000
(S, MS, I), [ 5 -1  5]	 coeff	 0.013-0.008j	 |coeff| ** 2	 0.000
(S, MS, I), [5 1 4]	 coeff	 -0.013-0.006j	 |coeff| ** 2	 0.000
state 2 energy 507.4895918760685
(S, MS, I), [5 1 2]	 coeff	 0.198-0.321j	 |coeff| ** 2	 0.142
(S, MS, I), [ 5 -1  3]	 coeff	 -0.234-0.295j	 |coeff| ** 2	 0.142
(S, MS, I), [5 3 0]	 coeff	 -0.083+0.354j	 |coeff| ** 2	 0.132
(S, MS, I), [ 5 -3  1]	 coeff	 0.120+0.343j	 |coeff| ** 2	 0.132
(S, MS, I), [ 5 -5  0]	 coeff	 0.277+0.000j	 |coeff| ** 2	 0.077
(S, MS, I), [5 5 1]	 coeff	 -0.275+0.030j	 |coeff| ** 2	 0.076
(S, MS, I), [ 5 -3  2]	 coeff	 0.259-0.088j	 |coeff| ** 2	 0.075
(S, MS, I), [5 3 3]	 coeff	 -0.267-0.057j	 |coeff| ** 2	 0.074
(S, MS, I), [5 1 1]	 coeff	 -0.143-0.092j	 |coeff| ** 2	 0.029
(S, MS, I), [ 5 -1  0]	 coeff	 0.132-0.107j	 |coeff| ** 2	 0.029
state 3 energy 507.48959387217866
(S, MS, I), [ 5 -1  2]	 coeff	 0.365-0.096j	 |coeff| ** 2	 0.142
(S, MS, I), [5 1 3]	 coeff	 -0.214-0.310j	 |coeff| ** 2	 0.142
(S, MS, I), [ 5 -3  0]	 coeff	 0.363+0.025j	 |coeff| ** 2	 0.132
(S, MS, I), [5 3 1]	 coeff	 -0.293-0.216j	 |coeff| ** 2	 0.132
(S, MS, I), [5 5 0]	 coeff	 -0.081+0.265j	 |coeff| ** 2	 0.077
(S, MS, I), [ 5 -5  1]	 coeff	 -0.109+0.254j	 |coeff| ** 2	 0.076
(S, MS, I), [5 3 2]	 coeff	 0.160-0.222j	 |coeff| ** 2	 0.075
(S, MS, I), [ 5 -3  3]	 coeff	 0.024-0.272j	 |coeff| ** 2	 0.074
(S, MS, I), [ 5 -1  1]	 coeff	 0.046+0.164j	 |coeff| ** 2	 0.029
(S, MS, I), [5 1 0]	 coeff	 -0.141+0.095j	 |coeff| ** 2	 0.029
mag energy [0.00000000e+00 2.39533216e-06 5.07489592e+02 5.07489594e+02
 7.62286633e+02 7.62286635e+02 9.21412221e+02 9.21412222e+02
 1.09315489e+03 1.09315490e+03 1.27723003e+03 1.27723003e+03
 1.43398192e+03 1.43398192e+03 1.53603446e+03 1.53603446e+03
 3.31424769e+03 3.31424769e+03 3.44461203e+03 3.44461203e+03]
Traceback (most recent call last):
  File "/lustre/home/2201110421/python/srdiis/DyCp2/all/nevpt2/main.py", line 40, in <module>
    from psh.psh import PSH
ModuleNotFoundError: No module named 'psh'
