#INFO: **** input file is /lustre/home/2201110421/python/srdiis/DyCp2/all/nevpt2/main.py ****
from pyscf import gto, scf, ao2mo, lib
from embed_sim import rdiis, ssdmet, sacasscf_mixer, siso, myavas
from pyscf.tools import molden, cubegen
import basis_set_exchange as bse
from functools import reduce
import numpy as np
import os

mol = gto.M(atom='structure.xyz',
        basis={
            'Dy':gto.basis.parse(bse.get_basis('ANO-RCC-VTZP',elements='Dy',fmt='nwchem')),
            'C1':gto.basis.parse(bse.get_basis('ANO-RCC-VTZP',elements='C',fmt='nwchem')),
            'C':gto.basis.parse(bse.get_basis('ANO-RCC-VDZP',elements='C',fmt='nwchem')),
            'H':gto.basis.parse(bse.get_basis('ANO-RCC-VDZP',elements='H',fmt='nwchem'))
            },
        symmetry=0,spin=5,charge=1,verbose=4)
title = 'DyCp2'
mf = scf.ROHF(mol).x2c().density_fit()
mf.chkfile = 'diis.chk'
mf.init_guess = 'chk'
#mf.level_shift = 0.2
mf.conv_tol = 1e-6
mf.diis = rdiis.RDIIS(rdiis_prop='dS',imp_idx=mol.search_ao_label(['Dy.*f']),power=0.)
mf.max_cycle = 0
mf.conv_check = False
mf.kernel()

ncas, nelec, mo = myavas.avas(mf, 'Dy 4f', minao=gto.basis.parse(bse.get_basis('ANO-RCC-VTZP',elements='Dy',fmt='nwchem')), openshell_option=3, threshold=0.5)
mycas = sacasscf_mixer.sacasscf_mixer(mf, ncas, nelec, statelis=[0,0,0,0,0,21])
mycas.kernel(mo)

#ecorr = sacasscf_mixer.sacasscf_nevpt2(mycas)
ecorr = np.loadtxt('nevpt2.txt')
mycas.fcisolver.e_states = mycas.fcisolver.e_states + ecorr
Ha2cm = 219474.63
np.savetxt(title+'_opt.txt',(mycas.fcisolver.e_states-np.min(mycas.fcisolver.e_states))*Ha2cm,fmt='%.6f')

mysiso = siso.SISO(title, mycas, verbose=5).density_fit()
mysiso.kernel()

from embed_sim.psh.psh import PSH
mypsh = PSH(mysiso,Nstate=int(16),lmax=int(12),TFO=1,TFB=0)
mypsh.gen_ESO()
mypsh.get_E_J()
mypsh.get_g_tensor()
#INFO: ******************** input file end ********************


System: uname_result(system='Linux', node='l09c71n2', release='4.18.0-425.3.1.el8.x86_64', version='#1 SMP Wed Nov 9 20:13:27 UTC 2022', machine='x86_64')  Threads 64
Python 3.10.15 (main, Oct  3 2024, 07:27:34) [GCC 11.2.0]
numpy 2.2.5  scipy 1.15.2  h5py 3.12.1
Date: Mon Apr 21 16:30:13 2025
PySCF version 2.8.0
PySCF path  /lustre/home/2201110421/.local/lib/python3.10/site-packages/pyscf

[ENV] PYSCF_TMPDIR /lustre/home/2201110421/__TMPDIR__
[CONFIG] conf_file /lustre/home/2201110421/.pyscf_conf.py
[INPUT] verbose = 4
[INPUT] num. atoms = 93
[INPUT] num. electrons = 327
[INPUT] charge = 1
[INPUT] spin (= nelec alpha-beta = 2S) = 5
[INPUT] symmetry 0 subgroup None
[INPUT] Mole.unit = angstrom
[INPUT] Symbol           X                Y                Z      unit          X                Y                Z       unit  Magmom
[INPUT]  1 Dy     9.556044000000   2.129450000000  14.226799000000 AA   18.058305994293   4.024077295955  26.884753739236 Bohr   0.0
[INPUT]  2 C1     7.814595000000   3.997071000000  14.041436000000 AA   14.767444324396   7.553369490441  26.534468435608 Bohr   0.0
[INPUT]  3 C1     7.200727000000   2.965486000000  14.838974000000 AA   13.607401927761   5.603956366232  28.041596829542 Bohr   0.0
[INPUT]  4 C1     6.938404000000   1.876663000000  13.965859000000 AA   13.111683301587   3.546379098105  26.391648604292 Bohr   0.0
[INPUT]  5 H      6.531568000000   1.059770000000  14.229882000000 AA   12.342874683973   2.002675055030  26.890579764878 Bohr   0.0
[INPUT]  6 C1     7.361681000000   2.171775000000  12.655193000000 AA   13.911560906414   4.104059954177  23.914848823513 Bohr   0.0
[INPUT]  7 C1     7.921230000000   3.469282000000  12.716848000000 AA   14.968955269689   6.555992828883  24.031359887723 Bohr   0.0
[INPUT]  8 H      8.312761000000   3.926100000000  11.980707000000 AA   15.708841628966   7.419253737655  22.640255008660 Bohr   0.0
[INPUT]  9 C      8.503646000000   5.313898000000  14.413355000000 AA   16.069562000253  10.041811873874  27.237293486130 Bohr   0.0
[INPUT] 10 C      9.878548000000   4.970582000000  15.031895000000 AA   18.667750228370   9.393038659693  28.406164683219 Bohr   0.0
[INPUT] 11 H     10.418109000000   4.481665000000  14.375368000000 AA   19.687372745866   8.469119432049  27.165508459837 Bohr   0.0
[INPUT] 12 H      9.749413000000   4.415174000000  15.827782000000 AA   18.423720445274   8.343469652300  29.910173139321 Bohr   0.0
[INPUT] 13 H     10.339512000000   5.798664000000  15.281140000000 AA   19.538845941654  10.957886848375  28.877169471136 Bohr   0.0
[INPUT] 14 C      7.687535000000   6.218609000000  15.334204000000 AA   14.527335723008  11.751467885755  28.977445898210 Bohr   0.0
[INPUT] 15 H      7.510011000000   5.752330000000  16.177664000000 AA   14.191863982471  10.870328278119  30.571354295236 Bohr   0.0
[INPUT] 16 H      6.837283000000   6.443968000000  14.900887000000 AA   12.920592306145  12.177334675461  28.158595443092 Bohr   0.0
[INPUT] 17 H      8.189838000000   7.040229000000  15.514196000000 AA   15.476550824556  13.304104664221  29.317581482823 Bohr   0.0
[INPUT] 18 C      8.787666000000   6.155878000000  13.152411000000 AA   16.606282014152  11.632923476235  24.854454667717 Bohr   0.0
[INPUT] 19 H      9.391098000000   5.661021000000  12.558016000000 AA   17.746603228951  10.697779275411  23.731210907906 Bohr   0.0
[INPUT] 20 H      9.207887000000   7.002180000000  13.411719000000 AA   17.400384615943  13.232202474907  25.344475769626 Bohr   0.0
[INPUT] 21 H      7.946631000000   6.338322000000  12.683971000000 AA   15.016956202979  11.977692669305  23.969231361926 Bohr   0.0
[INPUT] 22 C      6.723208000000   2.906036000000  16.310740000000 AA   12.705021798485   5.491612148127  30.822831488988 Bohr   0.0
[INPUT] 23 C      6.296226000000   1.497291000000  16.700558000000 AA   11.898142758366   2.829469918776  31.559480747414 Bohr   0.0
[INPUT] 24 H      5.572673000000   1.199676000000  16.108768000000 AA   10.530825751758   2.267059078214  30.441159724158 Bohr   0.0
[INPUT] 25 H      5.980750000000   1.495641000000  17.627630000000 AA   11.301979519492   2.826351870671  33.311392925167 Bohr   0.0
[INPUT] 26 H      7.059214000000   0.888400000000  16.613129000000 AA   13.339981114695   1.678832689064  31.394263882069 Bohr   0.0
[INPUT] 27 C      5.484590000000   3.792792000000  16.483772000000 AA   10.364373005528   7.167338127441  31.149814579774 Bohr   0.0
[INPUT] 28 H      5.710639000000   4.717319000000  16.251671000000 AA   10.791543706260   8.914440952207  30.711207256536 Bohr   0.0
[INPUT] 29 H      5.183826000000   3.753919000000  17.415895000000 AA    9.796011417400   7.093878803801  32.911271764182 Bohr   0.0
[INPUT] 30 H      4.769248000000   3.473009000000  15.895940000000 AA    9.012572540130   6.563035838150  30.038973092519 Bohr   0.0
[INPUT] 31 C      7.815513000000   3.303655000000  17.317108000000 AA   14.769179092978   6.243003160050  32.724591389515 Bohr   0.0
[INPUT] 32 H      8.569194000000   2.680836000000  17.244694000000 AA   16.193429768266   5.066045824875  32.587748761930 Bohr   0.0
[INPUT] 33 H      7.450916000000   3.270548000000  18.225904000000 AA   14.080190617140   6.180439997244  34.441966932615 Bohr   0.0
[INPUT] 34 H      8.124358000000   4.213174000000  17.121820000000 AA   15.352811557919   7.961744975138  32.355550554101 Bohr   0.0
[INPUT] 35 C      6.950428000000   1.380720000000  11.412148000000 AA   13.134405368508   2.609182654709  21.565834213003 Bohr   0.0
[INPUT] 36 C1    11.309863000000   0.269903000000  14.059336000000 AA   21.372543576352   0.510042750198  26.568294533238 Bohr   0.0
[INPUT] 37 C1    11.901112000000   1.272952000000  14.910574000000 AA   22.489842257775   2.405530649717  28.176901220061 Bohr   0.0
[INPUT] 38 C1    12.181399000000   2.391313000000  14.077235000000 AA   23.019507924051   4.518926648112  26.602118741142 Bohr   0.0
[INPUT] 39 H     12.582384000000   3.198662000000  14.375984000000 AA   23.777259754109   6.044595145054  27.166672531129 Bohr   0.0
[INPUT] 40 C1    11.789215000000   2.143232000000  12.756625000000 AA   22.278387573614   4.050121501404  24.106527523780 Bohr   0.0
[INPUT] 41 C1    11.242659000000   0.830959000000  12.754637000000 AA   21.245546421877   1.570284930742  24.102770748244 Bohr   0.0
[INPUT] 42 H     10.883315000000   0.393475000000  11.991466000000 AA   20.566484677371   0.743559986863  22.660586572034 Bohr   0.0
[INPUT] 43 C     10.609173000000  -1.066309000000  14.369601000000 AA   20.048431378130  -2.015031974159  27.154610409276 Bohr   0.0
[INPUT] 44 C      9.222604000000  -0.715259000000  14.958306000000 AA   17.428195715318  -1.351643618130  28.267101627438 Bohr   0.0
[INPUT] 45 H      8.705729000000  -0.207899000000  14.298180000000 AA   16.451443524684  -0.392872171571  27.019644279734 Bohr   0.0
[INPUT] 46 H      9.338013000000  -0.174634000000  15.767936000000 AA   17.646287117628  -0.330010432037  29.797080589670 Bohr   0.0
[INPUT] 47 H      8.744044000000  -1.540739000000  15.183129000000 AA   16.523848381146  -2.911574739436  28.691955523941 Bohr   0.0
[INPUT] 48 C     10.356125000000  -1.873578000000  13.098710000000 AA   19.570239961761  -3.540549293010  24.752974485102 Bohr   0.0
[INPUT] 49 H      9.946109000000  -2.732191000000  13.332961000000 AA   18.795422015072  -5.163092710002  25.195644719507 Bohr   0.0
[INPUT] 50 H     11.207101000000  -2.032895000000  12.638725000000 AA   21.178351540339  -3.841614789998  23.883728813694 Bohr   0.0
[INPUT] 51 H      9.754502000000  -1.374060000000  12.508433000000 AA   18.433337261522  -2.596597078720  23.637512617472 Bohr   0.0
[INPUT] 52 C     11.388838000000  -1.989050000000  15.300392000000 AA   21.521784697039  -3.758759748066  28.913550478486 Bohr   0.0
[INPUT] 53 H     11.514218000000  -1.548549000000  16.167759000000 AA   21.758718558537  -2.926333500469  30.552636557972 Bohr   0.0
[INPUT] 54 H     12.263964000000  -2.187113000000  14.906337000000 AA   23.175533161525  -4.133044573476  28.168894450471 Bohr   0.0
[INPUT] 55 H     10.890915000000  -2.823034000000  15.427303000000 AA   20.580846595917  -5.334761100335  29.153377510681 Bohr   0.0
[INPUT] 56 C     12.344826000000   1.283796000000  16.390293000000 AA   23.328340195410   2.426022839812  30.973164871376 Bohr   0.0
[INPUT] 57 C     13.586277000000   0.384404000000  16.537472000000 AA   25.674342582477   0.726418281187  31.251292872663 Bohr   0.0
[INPUT] 58 H     14.269858000000   0.662100000000  15.891605000000 AA   26.966123456434   1.251187667075  30.030781129769 Bohr   0.0
[INPUT] 59 H     13.943606000000   0.465759000000  17.445988000000 AA   26.349596528842   0.880156950051  32.968139292449 Bohr   0.0
[INPUT] 60 H     13.336493000000  -0.547943000000  16.366686000000 AA   25.202319232179  -1.035462201873  30.928554106753 Bohr   0.0
[INPUT] 61 C     12.791193000000   2.697941000000  16.809946000000 AA   24.171851576454   5.098369590235  31.766194108728 Bohr   0.0
[INPUT] 62 H     12.036365000000   3.316899000000  16.724663000000 AA   22.745433385301   6.268030692844  31.605032595647 Bohr   0.0
[INPUT] 63 H     13.524064000000   2.993955000000  16.231184000000 AA   25.556777051090   5.657754979272  30.672492437422 Bohr   0.0
[INPUT] 64 H     13.096076000000   2.680385000000  17.741016000000 AA   24.747996946490   5.065193558392  33.525661411527 Bohr   0.0
[INPUT] 65 C     11.241718000000   0.894893000000  17.376776000000 AA   21.243768189593   1.691102680790  32.837347567915 Bohr   0.0
[INPUT] 66 H     10.517681000000   1.554932000000  17.333874000000 AA   19.875536555542   2.938395622322  32.756274537719 Bohr   0.0
[INPUT] 67 H     11.608333000000   0.871062000000  18.284595000000 AA   21.936570132751   1.646068617516  34.552876848592 Bohr   0.0
[INPUT] 68 H     10.890656000000   0.010540000000  17.141989000000 AA   20.580357156851   0.019917713353  32.393664440307 Bohr   0.0
[INPUT] 69 C     12.213807000000   2.961852000000  11.525514000000 AA   23.080750168296   5.597089101495  21.780064904840 Bohr   0.0
[INPUT] 70 C     13.524995000000   2.371619000000  11.032273000000 AA   25.558536386112   4.481710381815  20.847974501434 Bohr   0.0
[INPUT] 71 H     13.378725000000   1.447438000000  10.740426000000 AA   25.282126145872   2.735261402288  20.296463601158 Bohr   0.0
[INPUT] 72 H     14.183485000000   2.384972000000  11.757515000000 AA   26.802902141877   4.506943894756  22.218483255466 Bohr   0.0
[INPUT] 73 H     13.859285000000   2.902245000000  10.278193000000 AA   26.190252932293   5.484448196388  19.422969825422 Bohr   0.0
[INPUT] 74 C     12.475589000000   4.435982000000  11.907376000000 AA   23.575446452637   8.382791073500  22.501679502219 Bohr   0.0
[INPUT] 75 H     11.655479000000   4.828820000000  12.273767000000 AA   22.025663160619   9.125147304822  23.194058146725 Bohr   0.0
[INPUT] 76 H     12.750122000000   4.936535000000  11.111351000000 AA   24.094238634792   9.328699154330  20.997410263912 Bohr   0.0
[INPUT] 77 H     13.186252000000   4.477696000000  12.581167000000 AA   24.918404889498   8.461619109060  23.774959957416 Bohr   0.0
[INPUT] 78 C     11.159631000000   2.944490000000  10.455500000000 AA   21.088646241206   5.564279676521  19.758031495390 Bohr   0.0
[INPUT] 79 H     11.017158000000   2.024059000000  10.151839000000 AA   20.819411291061   3.824917169961  19.184195370678 Bohr   0.0
[INPUT] 80 H     11.450239000000   3.497238000000   9.701022000000 AA   21.637815770814   6.608822012422  18.332274708380 Bohr   0.0
[INPUT] 81 H     10.321317000000   3.301810000000  10.818330000000 AA   19.504462374817   6.239516615350  20.443680825166 Bohr   0.0
[INPUT] 82 C      6.745838000000  -0.112074000000  11.766167000000 AA   12.747786300684  -0.211789165685  22.234833165895 Bohr   0.0
[INPUT] 83 H      7.576732000000  -0.477195000000  12.134665000000 AA   14.317948399228  -0.901767858012  22.931193463345 Bohr   0.0
[INPUT] 84 H      6.499476000000  -0.608765000000  10.958526000000 AA   12.282229593184  -1.150399124221  20.708612868925 Bohr   0.0
[INPUT] 85 H      6.029816000000  -0.193875000000  12.431066000000 AA   11.394700821520  -0.366370652400  23.491310176393 Bohr   0.0
[INPUT] 86 C      5.590468000000   1.907575000000  11.008406000000 AA   10.564453428145   3.604794312067  20.802872408019 Bohr   0.0
[INPUT] 87 H      4.970463000000   1.823686000000  11.762766000000 AA    9.392813782284   3.446267077204  22.228406207346 Bohr   0.0
[INPUT] 88 H      5.251590000000   1.390881000000  10.247941000000 AA    9.924066818505   2.628384161861  19.365801830701 Bohr   0.0
[INPUT] 89 H      5.667800000000   2.851174000000  10.753294000000 AA   10.710589728810   5.387937993481  20.320780596929 Bohr   0.0
[INPUT] 90 C      7.952284000000   1.464883000000  10.296391000000 AA   15.027638824761   2.768227674531  19.457359061437 Bohr   0.0
[INPUT] 91 H      7.658968000000   0.900753000000   9.551498000000 AA   14.473351916808   1.702176475880  18.049715299331 Bohr   0.0
[INPUT] 92 H      8.824540000000   1.155279000000  10.618130000000 AA   16.675963775269   2.183160907461  20.065357655028 Bohr   0.0
[INPUT] 93 H      8.026235000000   2.394094000000   9.994340000000 AA   15.167385961398   4.524181976464  18.886565395786 Bohr   0.0

nuclear repulsion = 6700.31263674069
number of shells = 234
number of NR pGTOs = 3745
number of NR cGTOs = 1030
basis = {'Dy': [[0, [48703424.0, 0.00051062, -0.00018679, 8.715e-05, -4.197e-05, 1.623e-05, -4.77e-06, -2.16e-05, 1.315e-05], [9835905.78, 0.00091639, -0.00033574, 0.00015669, -7.546e-05, 2.917e-05, -8.58e-06, -3.881e-05, 2.363e-05], [2507419.33, 0.00236982, -0.00087008, 0.0004062, -0.00019563, 7.564e-05, -2.224e-05, -0.00010077, 6.131e-05], [720107.291, 0.00504151, -0.00185896, 0.00086841, -0.00041835, 0.00016172, -4.754e-05, -0.000215, 0.00013091], [227915.188, 0.01090246, -0.00404956, 0.00189401, -0.00091246, 0.00035289, -0.00010376, -0.00047092, 0.00028639], [77972.0454, 0.02261548, -0.00850442, 0.0039849, -0.00192142, 0.00074263, -0.00021829, -0.0009847, 0.00060006], [28493.1637, 0.04689622, -0.0180222, 0.0084749, -0.00408667, 0.0015816, -0.00046509, -0.00212041, 0.00128761], [10994.2054, 0.09576921, -0.03819922, 0.01806638, -0.00873429, 0.0033747, -0.00099179, -0.00444871, 0.00271605], [4432.76659, 0.18702809, -0.08005879, 0.03831646, -0.01853919, 0.00718665, -0.00211419, -0.00972556, 0.00588848], [1855.9353, 0.31055332, -0.15174939, 0.07426101, -0.03622926, 0.01399717, -0.0041123, -0.01823945, 0.01117732], [804.115628, 0.34439942, -0.21181579, 0.1082699, -0.05306712, 0.02070126, -0.006099, -0.02894414, 0.01734779], [356.717248, 0.16185973, -0.064521, 0.03005414, -0.01505805, 0.00552152, -0.00159367, -0.00374778, 0.00298113], [163.510611, 0.0100827, 0.43261834, -0.33597759, 0.18427161, -0.07218752, 0.02120503, 0.08846365, -0.0552476], [77.7468785, 0.00324412, 0.5746653, -0.63590421, 0.37361716, -0.15343224, 0.04557852, 0.23720559, -0.13781894], [37.8689264, -0.00248632, 0.15019709, 0.08114765, -0.06359666, 0.03339437, -0.01049085, -0.10483675, 0.05257394], [18.8149364, 0.00163138, 0.00587647, 0.91500815, -1.04227461, 0.47561418, -0.14203101, -0.64681977, 0.38038991], [9.17736071, -0.00105311, -0.00111289, 0.32079411, -0.25331861, 0.13200862, -0.04203827, -0.33030623, 0.19176141], [4.38814536, 0.00062977, 0.00063454, 0.00486577, 1.0776, -0.81808349, 0.26539425, 2.47056998, -1.18360413], [2.00478195, -0.00023431, -0.00043087, 0.00376344, 0.41151803, -0.41033224, 0.13626068, -1.83682961, 0.38466386], [0.7515629, 5.661e-05, 0.00021594, -0.0014245, -0.00265658, 0.91652097, -0.38106898, -1.36176016, 1.18550874], [0.30062516, -0.00010589, -0.00011463, 0.00057648, 0.0074291, 0.48350787, -0.4308519, 3.07056964, -0.44340253], [0.12025006, 4.483e-05, 7.125e-05, -0.00038449, -0.00384615, -0.01942043, 0.22604469, -1.62013597, -1.07254728], [0.04810002, -9.08e-06, -4.207e-05, 0.00022269, 0.00203717, 0.04117364, 0.8025413, -0.82657694, -0.13239773], [0.01924001, 1.628e-05, 1.783e-05, -9.191e-05, -0.00103399, -0.00227057, 0.23566263, 1.19474292, 1.08074075], [0.007696, -3.36e-06, -5.37e-06, 2.816e-05, 0.0002903, 0.0023105, -0.00603435, -0.06570914, -0.06909287]], [1, [6873747.25, 2.666e-05, -1.322e-05, 6.26e-06, -2.17e-06, 1.74e-06, -3.1e-06, 4.12e-06], [1057919.64, 8.947e-05, -4.441e-05, 2.105e-05, -7.29e-06, 5.86e-06, -1.041e-05, 1.382e-05], [224119.965, 0.00029634, -0.00014736, 6.986e-05, -2.42e-05, 1.948e-05, -3.465e-05, 4.61e-05], [57590.4869, 0.00096719, -0.00048248, 0.00022899, -7.935e-05, 6.374e-05, -0.00011303, 0.00014968], [17230.9546, 0.00320383, -0.0016058, 0.00076224, -0.00026418, 0.00021288, -0.00037961, 0.00050674], [5880.0643, 0.01059206, -0.0053541, 0.00254986, -0.00088417, 0.00070936, -0.00125515, 0.00165715], [2242.72524, 0.03382242, -0.01734906, 0.00827371, -0.00287033, 0.00231667, -0.00414154, 0.00554898], [933.490886, 0.09775736, -0.0516229, 0.02484149, -0.00863138, 0.00692082, -0.0122277, 0.01612064], [414.230948, 0.23086474, -0.12769733, 0.06192917, -0.02155795, 0.01744556, -0.03130606, 0.04220192], [191.936524, 0.38098619, -0.22389326, 0.11079347, -0.0387053, 0.03096556, -0.05443014, 0.07137339], [91.6221274, 0.33293017, -0.15241264, 0.0672132, -0.02292433, 0.01903911, -0.03563671, 0.05014447], [43.8611428, 0.10085375, 0.29251263, -0.21134869, 0.07942482, -0.06706591, 0.12652894, -0.18308254], [21.5452745, 0.00273707, 0.60300143, -0.4803163, 0.18403668, -0.1512181, 0.27224936, -0.39372467], [10.5469112, 0.00126568, 0.24249463, 0.05368759, -0.04800893, 0.04549055, -0.0940304, 0.23727068], [5.0111035, -0.00075274, 0.01405951, 0.71825381, -0.37734966, 0.37839782, -0.83289852, 1.48745987], [2.30220189, 0.00031427, 0.00187369, 0.37777337, -0.19918231, 0.04045255, 0.37973994, -2.33432997], [1.00615809, -0.00015858, -0.00062766, 0.02067059, 0.49696473, -0.68804394, 1.23004075, 0.90264391], [0.40246323, 7.634e-05, 0.00032028, 0.00478163, 0.61274689, -0.07519176, -1.20088909, 1.12887094], [0.16098529, -4.221e-05, -0.00016848, -0.00217212, 0.10916501, 0.49911417, -0.33516687, -1.96163411], [0.06439411, 2.262e-05, 9.305e-05, 0.00121056, 0.00770242, 0.5328648, 0.83057532, 1.01583216], [0.02575764, -1.084e-05, -4.439e-05, -0.00059588, -0.00205505, 0.06155774, 0.0782207, 0.13301871], [0.01030306, 3.44e-06, 1.41e-05, 0.00018992, 0.00083932, 0.0003655, 0.0087259, 0.01962353]], [2, [4432.76659, 0.00040529, -0.00019466, 5.91e-05, -8.24e-05, 0.00012196], [1855.9353, 0.00132115, -0.00062435, 0.00017362, -0.00020321, 0.0002342], [804.115628, 0.00700052, -0.00338464, 0.00102541, -0.00142046, 0.0020826], [356.717248, 0.02979034, -0.0143448, 0.00411341, -0.00512371, 0.00653222], [163.510611, 0.10285194, -0.05084729, 0.0152633, -0.02064304, 0.02943213], [77.7468785, 0.25333255, -0.12556523, 0.03622242, -0.04540741, 0.05847198], [37.8689264, 0.3980799, -0.19208143, 0.05867513, -0.08302307, 0.12587606], [18.8149364, 0.32606805, -0.07116155, 0.01177525, -0.00741375, 0.00649177], [9.17736071, 0.09839079, 0.3122345, -0.10295527, 0.11752781, -0.18276148], [4.38814536, 0.00522266, 0.51695902, -0.20842942, 0.36949961, -0.72012887], [2.00478195, 0.00082068, 0.29235923, 0.0256903, -0.21701068, 1.20793867], [0.7515629, -0.00018753, 0.04017088, 0.44985419, -0.81737173, -0.13312085], [0.28409153, 0.00010876, -0.00257837, 0.48110489, 0.38179704, -0.87820366], [0.08929497, -3.808e-05, 0.00136356, 0.25089251, 0.57870432, 0.77689528], [0.03571798, 1.676e-05, -0.00051167, 0.03211638, 0.05747733, 0.06296428]], [3, [191.936524, 0.00282264, -0.0030448, 0.00320732], [91.6221274, 0.01054334, -0.01157445, 0.01375268], [43.8611428, 0.0422774, -0.04586565, 0.0487374], [21.5452745, 0.11522458, -0.12726733, 0.15040619], [10.5469112, 0.2412877, -0.25118357, 0.25366062], [5.0111035, 0.33641748, -0.26298914, 0.17960333], [2.30220189, 0.33089588, 0.0214549, -0.48019965], [1.00615809, 0.23406372, 0.44728066, -0.39520092], [0.40632415, 0.1058854, 0.42666992, 0.47485034], [0.16252966, 0.01641108, 0.13926544, 0.40928466], [0.06501186, -0.00020473, 0.01908808, 0.12171316]], [4, [6.670112, 0.24895926, -0.61348622], [2.668045, 0.42755061, -0.3081439], [1.067218, 0.48636482, 0.50096055], [0.426887, 0.15364251, 0.37473538]], [5, [3.201654, 0.52157065], [1.280661, 0.62512412]]], 'C1': [[0, [50557.501, 0.0001128874, -2.50742e-05, 1.61788e-05, -4.55357e-05], [7524.7856, 0.0005295373, -0.0001175945, 7.49712e-05, -0.000204647], [1694.3276, 0.0024500383, -0.0005456275, 0.0003573467, -0.0010264601], [472.82279, 0.0100539847, -0.0022450771, 0.0014349316, -0.003776444], [151.71075, 0.0354539806, -0.0080434718, 0.0055086779, -0.0156602173], [53.918746, 0.1044071086, -0.0244258871, 0.016914969, -0.0398609476], [20.659311, 0.2412894918, -0.0613679118, 0.0514166524, -0.1297300876], [8.383976, 0.3834225483, -0.1177767835, 0.1137343741, -0.1592692975], [3.577015, 0.3078514393, -0.1550487783, 0.2337183944, -0.4821720801], [1.547118, 0.0687244299, -0.0193331686, -0.0718378257, 1.0854256553], [0.613013, 0.0002224445, 0.3996930678, -1.0490908711, 1.0468686972], [0.246068, 0.0019767489, 0.5589420949, -0.0666273399, -2.5679529689], [0.099087, 0.0020578594, 0.1711195023, 1.0119993798, 1.0616687974], [0.03468, 0.000418202, 0.0074562446, 0.1656046386, 0.4583312911]], [1, [83.333155, 0.001344656, 0.0037861905, -0.0017715885], [19.557611, 0.010235555, 0.0363883533, -0.014562181], [6.080365, 0.045200671, 0.1506435667, -0.0574573357], [2.179317, 0.1410756198, 0.666891458, -0.2126582848], [0.86515, 0.3047388085, 0.1737240264, -0.5271712924], [0.361944, 0.3995281011, -1.2802244007, -0.092969773], [0.15474, 0.2719163432, 0.3963864423, 0.6630031669], [0.065429, 0.0585766933, 0.5244641843, 0.3360877793], [0.0229, -0.0001263813, 0.0062295092, 0.0054695244]], [2, [1.9, 0.1424518048, -0.4383799723], [0.665, 0.5591973019, -0.5926781395], [0.23275, 0.443000438, 0.8672435762], [0.081463, 0.041066537, 0.1701714938]], [3, [1.25, 0.3217598929], [0.5, 0.589420446], [0.2, 0.2711660139]]], 'C': [[0, [50557.501, 0.0001128874, -2.50742e-05, 1.61788e-05], [7524.7856, 0.0005295373, -0.0001175945, 7.49712e-05], [1694.3276, 0.0024500383, -0.0005456275, 0.0003573467], [472.82279, 0.0100539847, -0.0022450771, 0.0014349316], [151.71075, 0.0354539806, -0.0080434718, 0.0055086779], [53.918746, 0.1044071086, -0.0244258871, 0.016914969], [20.659311, 0.2412894918, -0.0613679118, 0.0514166524], [8.383976, 0.3834225483, -0.1177767835, 0.1137343741], [3.577015, 0.3078514393, -0.1550487783, 0.2337183944], [1.547118, 0.0687244299, -0.0193331686, -0.0718378257], [0.613013, 0.0002224445, 0.3996930678, -1.0490908711], [0.246068, 0.0019767489, 0.5589420949, -0.0666273399], [0.099087, 0.0020578594, 0.1711195023, 1.0119993798], [0.03468, 0.000418202, 0.0074562446, 0.1656046386]], [1, [83.333155, 0.001344656, -0.0017715885], [19.557611, 0.010235555, -0.014562181], [6.080365, 0.045200671, -0.0574573357], [2.179317, 0.1410756198, -0.2126582848], [0.86515, 0.3047388085, -0.5271712924], [0.361944, 0.3995281011, -0.092969773], [0.15474, 0.2719163432, 0.6630031669], [0.065429, 0.0585766933, 0.3360877793], [0.0229, -0.0001263813, 0.0054695244]], [2, [1.9, 0.1424518048], [0.665, 0.5591973019], [0.23275, 0.443000438], [0.081463, 0.041066537]]], 'H': [[0, [188.61445, 0.00096385, -0.0013119], [28.276596, 0.00749196, -0.0103451], [6.42483, 0.03759541, -0.0504953], [1.815041, 0.14339498, -0.2073855], [0.591063, 0.3486363, -0.4350885], [0.212149, 0.43829736, -0.0247297], [0.079891, 0.16510661, 0.32252599], [0.027962, 0.02102287, 0.70727538]], [1, [2.305, 0.11279019], [0.80675, 0.41850753], [0.282362, 0.47000773], [0.098827, 0.18262603]]]}
ecp = {}
CPU time:        14.19


******** <class 'pyscf.df.df_jk.DFsfX2C1eROHF'> ********
method = DFsfX2C1eROHF
initial guess = chk
damping factor = 0
level_shift factor = 0
DIIS = <embed_sim.rdiis.RDIIS object at 0x7f188025dd50>
diis_start_cycle = 1
diis_space = 8
SCF conv_tol = 1e-06
SCF conv_tol_grad = None
SCF max_cycles = 0
direct_scf = False
chkfile to save SCF result = diis.chk
max_memory 1020870 MB (current use 124 MB)
num. doubly occ = 161  num. singly occ = 5


******** <class 'pyscf.x2c.sfx2c1e.SpinFreeX2CHelper'> ********
approx = 1e
xuncontract = 1
Set gradient conv threshold to 0.001
******** <class 'pyscf.df.df.DF'> ********
auxbasis = None
max_memory = 1020870
ETB for Dy: l = 0, exps = 0.015392 * 2^n , n = 0..28
ETB for Dy: l = 1, exps = 0.017809250378384822 * 2^n , n = 0..24
ETB for Dy: l = 2, exps = 0.02060612 * 2^n , n = 0..22
ETB for Dy: l = 3, exps = 0.0383668862963259 * 2^n , n = 0..20
ETB for Dy: l = 4, exps = 0.05176180423020821 * 2^n , n = 0..17
ETB for Dy: l = 5, exps = 0.09637618617153929 * 2^n , n = 0..13
ETB for Dy: l = 6, exps = 0.13002372 * 2^n , n = 0..11
ETB for Dy: l = 7, exps = 0.3331829400183629 * 2^n , n = 0..7
ETB for Dy: l = 8, exps = 0.853774 * 2^n , n = 0..4
ETB for H: l = 0, exps = 0.055924 * 2^n , n = 0..12
ETB for H: l = 1, exps = 0.10513611318666864 * 2^n , n = 0..8
ETB for H: l = 2, exps = 0.197654 * 2^n , n = 0..4
ETB for C: l = 0, exps = 0.06936 * 2^n , n = 0..15
ETB for C: l = 1, exps = 0.05636211493547772 * 2^n , n = 0..13
ETB for C: l = 2, exps = 0.0458 * 2^n , n = 0..11
ETB for C: l = 3, exps = 0.08638293118434914 * 2^n , n = 0..8
ETB for C: l = 4, exps = 0.162926 * 2^n , n = 0..4
ETB for C1: l = 0, exps = 0.06936 * 2^n , n = 0..15
ETB for C1: l = 1, exps = 0.05636211493547772 * 2^n , n = 0..13
ETB for C1: l = 2, exps = 0.0458 * 2^n , n = 0..11
ETB for C1: l = 3, exps = 0.08638293118434914 * 2^n , n = 0..8
ETB for C1: l = 4, exps = 0.162926 * 2^n , n = 0..4

WARN: Even tempered Gaussians are generated as DF auxbasis for  Dy H C C1

init E= -13474.5458793185
  HOMO = -0.251101286256626  LUMO = -0.0404155133569061
SCF not converged.
SCF energy = -13474.5458793185

******** AVAS flags ********
aolabels = Dy 4f
ncore = 0
nunocc = 0
minao = [[0, [48703424.0, 0.00051062, -0.00018679, 8.715e-05, -4.197e-05, 1.623e-05, -4.77e-06, -2.16e-05, 1.315e-05], [9835905.78, 0.00091639, -0.00033574, 0.00015669, -7.546e-05, 2.917e-05, -8.58e-06, -3.881e-05, 2.363e-05], [2507419.33, 0.00236982, -0.00087008, 0.0004062, -0.00019563, 7.564e-05, -2.224e-05, -0.00010077, 6.131e-05], [720107.291, 0.00504151, -0.00185896, 0.00086841, -0.00041835, 0.00016172, -4.754e-05, -0.000215, 0.00013091], [227915.188, 0.01090246, -0.00404956, 0.00189401, -0.00091246, 0.00035289, -0.00010376, -0.00047092, 0.00028639], [77972.0454, 0.02261548, -0.00850442, 0.0039849, -0.00192142, 0.00074263, -0.00021829, -0.0009847, 0.00060006], [28493.1637, 0.04689622, -0.0180222, 0.0084749, -0.00408667, 0.0015816, -0.00046509, -0.00212041, 0.00128761], [10994.2054, 0.09576921, -0.03819922, 0.01806638, -0.00873429, 0.0033747, -0.00099179, -0.00444871, 0.00271605], [4432.76659, 0.18702809, -0.08005879, 0.03831646, -0.01853919, 0.00718665, -0.00211419, -0.00972556, 0.00588848], [1855.9353, 0.31055332, -0.15174939, 0.07426101, -0.03622926, 0.01399717, -0.0041123, -0.01823945, 0.01117732], [804.115628, 0.34439942, -0.21181579, 0.1082699, -0.05306712, 0.02070126, -0.006099, -0.02894414, 0.01734779], [356.717248, 0.16185973, -0.064521, 0.03005414, -0.01505805, 0.00552152, -0.00159367, -0.00374778, 0.00298113], [163.510611, 0.0100827, 0.43261834, -0.33597759, 0.18427161, -0.07218752, 0.02120503, 0.08846365, -0.0552476], [77.7468785, 0.00324412, 0.5746653, -0.63590421, 0.37361716, -0.15343224, 0.04557852, 0.23720559, -0.13781894], [37.8689264, -0.00248632, 0.15019709, 0.08114765, -0.06359666, 0.03339437, -0.01049085, -0.10483675, 0.05257394], [18.8149364, 0.00163138, 0.00587647, 0.91500815, -1.04227461, 0.47561418, -0.14203101, -0.64681977, 0.38038991], [9.17736071, -0.00105311, -0.00111289, 0.32079411, -0.25331861, 0.13200862, -0.04203827, -0.33030623, 0.19176141], [4.38814536, 0.00062977, 0.00063454, 0.00486577, 1.0776, -0.81808349, 0.26539425, 2.47056998, -1.18360413], [2.00478195, -0.00023431, -0.00043087, 0.00376344, 0.41151803, -0.41033224, 0.13626068, -1.83682961, 0.38466386], [0.7515629, 5.661e-05, 0.00021594, -0.0014245, -0.00265658, 0.91652097, -0.38106898, -1.36176016, 1.18550874], [0.30062516, -0.00010589, -0.00011463, 0.00057648, 0.0074291, 0.48350787, -0.4308519, 3.07056964, -0.44340253], [0.12025006, 4.483e-05, 7.125e-05, -0.00038449, -0.00384615, -0.01942043, 0.22604469, -1.62013597, -1.07254728], [0.04810002, -9.08e-06, -4.207e-05, 0.00022269, 0.00203717, 0.04117364, 0.8025413, -0.82657694, -0.13239773], [0.01924001, 1.628e-05, 1.783e-05, -9.191e-05, -0.00103399, -0.00227057, 0.23566263, 1.19474292, 1.08074075], [0.007696, -3.36e-06, -5.37e-06, 2.816e-05, 0.0002903, 0.0023105, -0.00603435, -0.06570914, -0.06909287]], [1, [6873747.25, 2.666e-05, -1.322e-05, 6.26e-06, -2.17e-06, 1.74e-06, -3.1e-06, 4.12e-06], [1057919.64, 8.947e-05, -4.441e-05, 2.105e-05, -7.29e-06, 5.86e-06, -1.041e-05, 1.382e-05], [224119.965, 0.00029634, -0.00014736, 6.986e-05, -2.42e-05, 1.948e-05, -3.465e-05, 4.61e-05], [57590.4869, 0.00096719, -0.00048248, 0.00022899, -7.935e-05, 6.374e-05, -0.00011303, 0.00014968], [17230.9546, 0.00320383, -0.0016058, 0.00076224, -0.00026418, 0.00021288, -0.00037961, 0.00050674], [5880.0643, 0.01059206, -0.0053541, 0.00254986, -0.00088417, 0.00070936, -0.00125515, 0.00165715], [2242.72524, 0.03382242, -0.01734906, 0.00827371, -0.00287033, 0.00231667, -0.00414154, 0.00554898], [933.490886, 0.09775736, -0.0516229, 0.02484149, -0.00863138, 0.00692082, -0.0122277, 0.01612064], [414.230948, 0.23086474, -0.12769733, 0.06192917, -0.02155795, 0.01744556, -0.03130606, 0.04220192], [191.936524, 0.38098619, -0.22389326, 0.11079347, -0.0387053, 0.03096556, -0.05443014, 0.07137339], [91.6221274, 0.33293017, -0.15241264, 0.0672132, -0.02292433, 0.01903911, -0.03563671, 0.05014447], [43.8611428, 0.10085375, 0.29251263, -0.21134869, 0.07942482, -0.06706591, 0.12652894, -0.18308254], [21.5452745, 0.00273707, 0.60300143, -0.4803163, 0.18403668, -0.1512181, 0.27224936, -0.39372467], [10.5469112, 0.00126568, 0.24249463, 0.05368759, -0.04800893, 0.04549055, -0.0940304, 0.23727068], [5.0111035, -0.00075274, 0.01405951, 0.71825381, -0.37734966, 0.37839782, -0.83289852, 1.48745987], [2.30220189, 0.00031427, 0.00187369, 0.37777337, -0.19918231, 0.04045255, 0.37973994, -2.33432997], [1.00615809, -0.00015858, -0.00062766, 0.02067059, 0.49696473, -0.68804394, 1.23004075, 0.90264391], [0.40246323, 7.634e-05, 0.00032028, 0.00478163, 0.61274689, -0.07519176, -1.20088909, 1.12887094], [0.16098529, -4.221e-05, -0.00016848, -0.00217212, 0.10916501, 0.49911417, -0.33516687, -1.96163411], [0.06439411, 2.262e-05, 9.305e-05, 0.00121056, 0.00770242, 0.5328648, 0.83057532, 1.01583216], [0.02575764, -1.084e-05, -4.439e-05, -0.00059588, -0.00205505, 0.06155774, 0.0782207, 0.13301871], [0.01030306, 3.44e-06, 1.41e-05, 0.00018992, 0.00083932, 0.0003655, 0.0087259, 0.01962353]], [2, [4432.76659, 0.00040529, -0.00019466, 5.91e-05, -8.24e-05, 0.00012196], [1855.9353, 0.00132115, -0.00062435, 0.00017362, -0.00020321, 0.0002342], [804.115628, 0.00700052, -0.00338464, 0.00102541, -0.00142046, 0.0020826], [356.717248, 0.02979034, -0.0143448, 0.00411341, -0.00512371, 0.00653222], [163.510611, 0.10285194, -0.05084729, 0.0152633, -0.02064304, 0.02943213], [77.7468785, 0.25333255, -0.12556523, 0.03622242, -0.04540741, 0.05847198], [37.8689264, 0.3980799, -0.19208143, 0.05867513, -0.08302307, 0.12587606], [18.8149364, 0.32606805, -0.07116155, 0.01177525, -0.00741375, 0.00649177], [9.17736071, 0.09839079, 0.3122345, -0.10295527, 0.11752781, -0.18276148], [4.38814536, 0.00522266, 0.51695902, -0.20842942, 0.36949961, -0.72012887], [2.00478195, 0.00082068, 0.29235923, 0.0256903, -0.21701068, 1.20793867], [0.7515629, -0.00018753, 0.04017088, 0.44985419, -0.81737173, -0.13312085], [0.28409153, 0.00010876, -0.00257837, 0.48110489, 0.38179704, -0.87820366], [0.08929497, -3.808e-05, 0.00136356, 0.25089251, 0.57870432, 0.77689528], [0.03571798, 1.676e-05, -0.00051167, 0.03211638, 0.05747733, 0.06296428]], [3, [191.936524, 0.00282264, -0.0030448, 0.00320732], [91.6221274, 0.01054334, -0.01157445, 0.01375268], [43.8611428, 0.0422774, -0.04586565, 0.0487374], [21.5452745, 0.11522458, -0.12726733, 0.15040619], [10.5469112, 0.2412877, -0.25118357, 0.25366062], [5.0111035, 0.33641748, -0.26298914, 0.17960333], [2.30220189, 0.33089588, 0.0214549, -0.48019965], [1.00615809, 0.23406372, 0.44728066, -0.39520092], [0.40632415, 0.1058854, 0.42666992, 0.47485034], [0.16252966, 0.01641108, 0.13926544, 0.40928466], [0.06501186, -0.00020473, 0.01908808, 0.12171316]], [4, [6.670112, 0.24895926, -0.61348622], [2.668045, 0.42755061, -0.3081439], [1.067218, 0.48636482, 0.50096055], [0.426887, 0.15364251, 0.37473538]], [5, [3.201654, 0.52157065], [1.280661, 0.62512412]]]
threshold = 0.5
with_iao = False
openshell_option = 3
canonicalize = True

** AVAS **
  Total number of HF MOs  is equal to    1030
  Number of occupied HF MOs is equal to  166
reference AO indices for [[0, [48703424.0, 0.00051062, -0.00018679, 8.715e-05, -4.197e-05, 1.623e-05, -4.77e-06, -2.16e-05, 1.315e-05], [9835905.78, 0.00091639, -0.00033574, 0.00015669, -7.546e-05, 2.917e-05, -8.58e-06, -3.881e-05, 2.363e-05], [2507419.33, 0.00236982, -0.00087008, 0.0004062, -0.00019563, 7.564e-05, -2.224e-05, -0.00010077, 6.131e-05], [720107.291, 0.00504151, -0.00185896, 0.00086841, -0.00041835, 0.00016172, -4.754e-05, -0.000215, 0.00013091], [227915.188, 0.01090246, -0.00404956, 0.00189401, -0.00091246, 0.00035289, -0.00010376, -0.00047092, 0.00028639], [77972.0454, 0.02261548, -0.00850442, 0.0039849, -0.00192142, 0.00074263, -0.00021829, -0.0009847, 0.00060006], [28493.1637, 0.04689622, -0.0180222, 0.0084749, -0.00408667, 0.0015816, -0.00046509, -0.00212041, 0.00128761], [10994.2054, 0.09576921, -0.03819922, 0.01806638, -0.00873429, 0.0033747, -0.00099179, -0.00444871, 0.00271605], [4432.76659, 0.18702809, -0.08005879, 0.03831646, -0.01853919, 0.00718665, -0.00211419, -0.00972556, 0.00588848], [1855.9353, 0.31055332, -0.15174939, 0.07426101, -0.03622926, 0.01399717, -0.0041123, -0.01823945, 0.01117732], [804.115628, 0.34439942, -0.21181579, 0.1082699, -0.05306712, 0.02070126, -0.006099, -0.02894414, 0.01734779], [356.717248, 0.16185973, -0.064521, 0.03005414, -0.01505805, 0.00552152, -0.00159367, -0.00374778, 0.00298113], [163.510611, 0.0100827, 0.43261834, -0.33597759, 0.18427161, -0.07218752, 0.02120503, 0.08846365, -0.0552476], [77.7468785, 0.00324412, 0.5746653, -0.63590421, 0.37361716, -0.15343224, 0.04557852, 0.23720559, -0.13781894], [37.8689264, -0.00248632, 0.15019709, 0.08114765, -0.06359666, 0.03339437, -0.01049085, -0.10483675, 0.05257394], [18.8149364, 0.00163138, 0.00587647, 0.91500815, -1.04227461, 0.47561418, -0.14203101, -0.64681977, 0.38038991], [9.17736071, -0.00105311, -0.00111289, 0.32079411, -0.25331861, 0.13200862, -0.04203827, -0.33030623, 0.19176141], [4.38814536, 0.00062977, 0.00063454, 0.00486577, 1.0776, -0.81808349, 0.26539425, 2.47056998, -1.18360413], [2.00478195, -0.00023431, -0.00043087, 0.00376344, 0.41151803, -0.41033224, 0.13626068, -1.83682961, 0.38466386], [0.7515629, 5.661e-05, 0.00021594, -0.0014245, -0.00265658, 0.91652097, -0.38106898, -1.36176016, 1.18550874], [0.30062516, -0.00010589, -0.00011463, 0.00057648, 0.0074291, 0.48350787, -0.4308519, 3.07056964, -0.44340253], [0.12025006, 4.483e-05, 7.125e-05, -0.00038449, -0.00384615, -0.01942043, 0.22604469, -1.62013597, -1.07254728], [0.04810002, -9.08e-06, -4.207e-05, 0.00022269, 0.00203717, 0.04117364, 0.8025413, -0.82657694, -0.13239773], [0.01924001, 1.628e-05, 1.783e-05, -9.191e-05, -0.00103399, -0.00227057, 0.23566263, 1.19474292, 1.08074075], [0.007696, -3.36e-06, -5.37e-06, 2.816e-05, 0.0002903, 0.0023105, -0.00603435, -0.06570914, -0.06909287]], [1, [6873747.25, 2.666e-05, -1.322e-05, 6.26e-06, -2.17e-06, 1.74e-06, -3.1e-06, 4.12e-06], [1057919.64, 8.947e-05, -4.441e-05, 2.105e-05, -7.29e-06, 5.86e-06, -1.041e-05, 1.382e-05], [224119.965, 0.00029634, -0.00014736, 6.986e-05, -2.42e-05, 1.948e-05, -3.465e-05, 4.61e-05], [57590.4869, 0.00096719, -0.00048248, 0.00022899, -7.935e-05, 6.374e-05, -0.00011303, 0.00014968], [17230.9546, 0.00320383, -0.0016058, 0.00076224, -0.00026418, 0.00021288, -0.00037961, 0.00050674], [5880.0643, 0.01059206, -0.0053541, 0.00254986, -0.00088417, 0.00070936, -0.00125515, 0.00165715], [2242.72524, 0.03382242, -0.01734906, 0.00827371, -0.00287033, 0.00231667, -0.00414154, 0.00554898], [933.490886, 0.09775736, -0.0516229, 0.02484149, -0.00863138, 0.00692082, -0.0122277, 0.01612064], [414.230948, 0.23086474, -0.12769733, 0.06192917, -0.02155795, 0.01744556, -0.03130606, 0.04220192], [191.936524, 0.38098619, -0.22389326, 0.11079347, -0.0387053, 0.03096556, -0.05443014, 0.07137339], [91.6221274, 0.33293017, -0.15241264, 0.0672132, -0.02292433, 0.01903911, -0.03563671, 0.05014447], [43.8611428, 0.10085375, 0.29251263, -0.21134869, 0.07942482, -0.06706591, 0.12652894, -0.18308254], [21.5452745, 0.00273707, 0.60300143, -0.4803163, 0.18403668, -0.1512181, 0.27224936, -0.39372467], [10.5469112, 0.00126568, 0.24249463, 0.05368759, -0.04800893, 0.04549055, -0.0940304, 0.23727068], [5.0111035, -0.00075274, 0.01405951, 0.71825381, -0.37734966, 0.37839782, -0.83289852, 1.48745987], [2.30220189, 0.00031427, 0.00187369, 0.37777337, -0.19918231, 0.04045255, 0.37973994, -2.33432997], [1.00615809, -0.00015858, -0.00062766, 0.02067059, 0.49696473, -0.68804394, 1.23004075, 0.90264391], [0.40246323, 7.634e-05, 0.00032028, 0.00478163, 0.61274689, -0.07519176, -1.20088909, 1.12887094], [0.16098529, -4.221e-05, -0.00016848, -0.00217212, 0.10916501, 0.49911417, -0.33516687, -1.96163411], [0.06439411, 2.262e-05, 9.305e-05, 0.00121056, 0.00770242, 0.5328648, 0.83057532, 1.01583216], [0.02575764, -1.084e-05, -4.439e-05, -0.00059588, -0.00205505, 0.06155774, 0.0782207, 0.13301871], [0.01030306, 3.44e-06, 1.41e-05, 0.00018992, 0.00083932, 0.0003655, 0.0087259, 0.01962353]], [2, [4432.76659, 0.00040529, -0.00019466, 5.91e-05, -8.24e-05, 0.00012196], [1855.9353, 0.00132115, -0.00062435, 0.00017362, -0.00020321, 0.0002342], [804.115628, 0.00700052, -0.00338464, 0.00102541, -0.00142046, 0.0020826], [356.717248, 0.02979034, -0.0143448, 0.00411341, -0.00512371, 0.00653222], [163.510611, 0.10285194, -0.05084729, 0.0152633, -0.02064304, 0.02943213], [77.7468785, 0.25333255, -0.12556523, 0.03622242, -0.04540741, 0.05847198], [37.8689264, 0.3980799, -0.19208143, 0.05867513, -0.08302307, 0.12587606], [18.8149364, 0.32606805, -0.07116155, 0.01177525, -0.00741375, 0.00649177], [9.17736071, 0.09839079, 0.3122345, -0.10295527, 0.11752781, -0.18276148], [4.38814536, 0.00522266, 0.51695902, -0.20842942, 0.36949961, -0.72012887], [2.00478195, 0.00082068, 0.29235923, 0.0256903, -0.21701068, 1.20793867], [0.7515629, -0.00018753, 0.04017088, 0.44985419, -0.81737173, -0.13312085], [0.28409153, 0.00010876, -0.00257837, 0.48110489, 0.38179704, -0.87820366], [0.08929497, -3.808e-05, 0.00136356, 0.25089251, 0.57870432, 0.77689528], [0.03571798, 1.676e-05, -0.00051167, 0.03211638, 0.05747733, 0.06296428]], [3, [191.936524, 0.00282264, -0.0030448, 0.00320732], [91.6221274, 0.01054334, -0.01157445, 0.01375268], [43.8611428, 0.0422774, -0.04586565, 0.0487374], [21.5452745, 0.11522458, -0.12726733, 0.15040619], [10.5469112, 0.2412877, -0.25118357, 0.25366062], [5.0111035, 0.33641748, -0.26298914, 0.17960333], [2.30220189, 0.33089588, 0.0214549, -0.48019965], [1.00615809, 0.23406372, 0.44728066, -0.39520092], [0.40632415, 0.1058854, 0.42666992, 0.47485034], [0.16252966, 0.01641108, 0.13926544, 0.40928466], [0.06501186, -0.00020473, 0.01908808, 0.12171316]], [4, [6.670112, 0.24895926, -0.61348622], [2.668045, 0.42755061, -0.3081439], [1.067218, 0.48636482, 0.50096055], [0.426887, 0.15364251, 0.37473538]], [5, [3.201654, 0.52157065], [1.280661, 0.62512412]]] Dy 4f:
 [54 55 56 57 58 59 60]
Option 3: threshold 0.5, num open shell 5
Active from occupied = 2 , eig [1.         1.         1.         1.         1.         0.99957695
 0.99964992]
Inactive from occupied = 159
Active from unoccupied = 0 , eig []
Inactive from unoccupied = 864
Dimensions of active 7
# of alpha electrons 7
# of beta electrons 2
Attempting SA-CASSCF with
fix_spin parameter 0.5 on spin multiplicity 6
21 states with spin multiplicity 6

******** <class 'pyscf.mcscf.addons.StateAverageDFCASSCF'> ********
CAS (7e+2e, 7o), ncore = 159, nvir = 864
max_cycle_macro = 50
max_cycle_micro = 4
conv_tol = 1e-07
conv_tol_grad = None
orbital rotation max_stepsize = 0.02
orbital rotation threshold for CI restart = 0.01
augmented hessian ah_max_cycle = 30
augmented hessian ah_conv_tol = 1e-12
augmented hessian ah_linear dependence = 1e-14
augmented hessian ah_level shift = 1e-08
augmented hessian ah_start_tol = 2.5
augmented hessian ah_start_cycle = 3
augmented hessian ah_grad_trust_region = 3
kf_trust_region = 3
kf_interval = 4
ci_response_space = 4
ci_grad_trust_region = 3
with_dep4 0
natorb = False
canonicalization = True
sorting_mo_energy = False
ao2mo_level = 2
chkfile = diis.chk
max_memory 1020870 MB (current use 52630 MB)
internal_rotation = False
******** <class 'pyscf.mcscf.addons.StateAverageMixSpinPenaltyFCISolver'> ********
max. cycles = 100
conv_tol = 1e-10
davidson only = True
linear dependence = 1e-14
level shift = 0.001
max iter space = 12
max_memory 1020870 MB
nroots = 21
pspace_size = 400
spin = 5
State-average over 21 states with weights [0.04761905 0.04761905 0.04761905 0.04761905 0.04761905 0.04761905
 0.04761905 0.04761905 0.04761905 0.04761905 0.04761905 0.04761905
 0.04761905 0.04761905 0.04761905 0.04761905 0.04761905 0.04761905
 0.04761905 0.04761905 0.04761905]
DFCASCI/DFCASSCF: density fitting for JK matrix and 2e integral transformation
CASCI E = -13474.5018857266  S^2 = 8.7500000
Set conv_tol_grad to 0.000316228
macro iter   1 ( 10 JK    4 micro), CASSCF E = -13474.5125661917  dE = -1.06804651e-02  S^2 = 8.7500000
               |grad[o]|=0.414  |ddm|=2.09e-15  |maxRot[o]|=0.0196
macro iter   2 (  6 JK    2 micro), CASSCF E = -13474.5125664280  dE = -2.36297637e-07  S^2 = 8.7500000
               |grad[o]|=0.000817  |ddm|=5.15e-15  |maxRot[o]|=0.000126
macro iter   3 (  1 JK    1 micro), CASSCF E = -13474.5125664280  dE =  0.00000000e+00  S^2 = 8.7500000
               |grad[o]|=1.3e-05  |ddm|=1.52e-15  |maxRot[o]|=    0
1-step CASSCF converged in   3 macro ( 17 JK   7 micro) steps
CASSCF canonicalization
Density matrix diagonal elements [1.28571429 1.28571429 1.28571429 1.28571429 1.28571429 1.28571429
 1.28571429]
CASSCF energy = -13474.5125664280
CASCI E = -13474.5125664280  E(CI) = -49.7779009895221  S^2 = 8.7500000
CASCI state-averaged energy = -13474.512566428
CASCI energy for each state
  State 0 weight 0.047619  E = -13474.5508827248 S^2 = 8.7500000
  State 1 weight 0.047619  E = -13474.5508825149 S^2 = 8.7500000
  State 2 weight 0.047619  E = -13474.5471943652 S^2 = 8.7500000
  State 3 weight 0.047619  E = -13474.5471926939 S^2 = 8.7500000
  State 4 weight 0.047619  E = -13474.5465057197 S^2 = 8.7500000
  State 5 weight 0.047619  E = -13474.5464924081 S^2 = 8.7500000
  State 6 weight 0.047619  E = -13474.5454069743 S^2 = 8.7500000
  State 7 weight 0.047619  E = -13474.5452725191 S^2 = 8.7500000
  State 8 weight 0.047619  E = -13474.5443610015 S^2 = 8.7500000
  State 9 weight 0.047619  E = -13474.5440173535 S^2 = 8.7500000
  State 10 weight 0.047619  E = -13474.5437961126 S^2 = 8.7500000
  State 11 weight 0.047619  E = -13474.5134262348 S^2 = 8.7500000
  State 12 weight 0.047619  E = -13474.5130092258 S^2 = 8.7500000
  State 13 weight 0.047619  E = -13474.5127508611 S^2 = 8.7500000
  State 14 weight 0.047619  E = -13474.5123713873 S^2 = 8.7500000
  State 15 weight 0.047619  E = -13474.5122666965 S^2 = 8.7500000
  State 16 weight 0.047619  E = -13474.5115026816 S^2 = 8.7500000
  State 17 weight 0.047619  E = -13474.5114933206 S^2 = 8.7500000
  State 18 weight 0.047619  E = -13474.3932357684 S^2 = 8.7500000
  State 19 weight 0.047619  E = -13474.3859650055 S^2 = 8.7500000
  State 20 weight 0.047619  E = -13474.3858694187 S^2 = 8.7500000
SISO with density fitting
Load from DyCp2_int3c2e_pvxp1.h5
    CPU time for 2e SOC J/K1/K2 integrals [1/743]     41.56 sec, wall time     35.11 sec
    CPU time for 2e SOC J/K1/K2 integrals [2/743]     35.79 sec, wall time      5.96 sec
    CPU time for 2e SOC J/K1/K2 integrals [3/743]     35.72 sec, wall time      3.40 sec
    CPU time for 2e SOC J/K1/K2 integrals [4/743]     35.66 sec, wall time      3.36 sec
    CPU time for 2e SOC J/K1/K2 integrals [5/743]     35.82 sec, wall time      2.96 sec
    CPU time for 2e SOC J/K1/K2 integrals [6/743]     35.81 sec, wall time      2.92 sec
    CPU time for 2e SOC J/K1/K2 integrals [7/743]     35.81 sec, wall time      2.97 sec
    CPU time for 2e SOC J/K1/K2 integrals [8/743]     35.66 sec, wall time      3.13 sec
    CPU time for 2e SOC J/K1/K2 integrals [9/743]     35.63 sec, wall time      3.09 sec
    CPU time for 2e SOC J/K1/K2 integrals [10/743]     35.82 sec, wall time      3.10 sec
    CPU time for 2e SOC J/K1/K2 integrals [11/743]     35.65 sec, wall time      2.95 sec
    CPU time for 2e SOC J/K1/K2 integrals [12/743]     35.50 sec, wall time      3.16 sec
    CPU time for 2e SOC J/K1/K2 integrals [13/743]     35.96 sec, wall time      2.75 sec
    CPU time for 2e SOC J/K1/K2 integrals [14/743]     35.68 sec, wall time      2.96 sec
    CPU time for 2e SOC J/K1/K2 integrals [15/743]     35.72 sec, wall time      3.15 sec
    CPU time for 2e SOC J/K1/K2 integrals [16/743]     35.68 sec, wall time      2.87 sec
    CPU time for 2e SOC J/K1/K2 integrals [17/743]     35.65 sec, wall time      2.78 sec
    CPU time for 2e SOC J/K1/K2 integrals [18/743]     35.53 sec, wall time      2.95 sec
    CPU time for 2e SOC J/K1/K2 integrals [19/743]     35.98 sec, wall time      2.95 sec
    CPU time for 2e SOC J/K1/K2 integrals [20/743]     35.57 sec, wall time      2.72 sec
    CPU time for 2e SOC J/K1/K2 integrals [21/743]     35.77 sec, wall time      2.63 sec
    CPU time for 2e SOC J/K1/K2 integrals [22/743]     35.71 sec, wall time      2.77 sec
    CPU time for 2e SOC J/K1/K2 integrals [23/743]     35.74 sec, wall time      2.60 sec
    CPU time for 2e SOC J/K1/K2 integrals [24/743]     35.83 sec, wall time      2.72 sec
    CPU time for 2e SOC J/K1/K2 integrals [25/743]     35.63 sec, wall time      2.62 sec
    CPU time for 2e SOC J/K1/K2 integrals [26/743]     35.77 sec, wall time      2.56 sec
    CPU time for 2e SOC J/K1/K2 integrals [27/743]     35.58 sec, wall time      2.55 sec
    CPU time for 2e SOC J/K1/K2 integrals [28/743]     35.37 sec, wall time      2.74 sec
    CPU time for 2e SOC J/K1/K2 integrals [29/743]     35.66 sec, wall time      2.48 sec
    CPU time for 2e SOC J/K1/K2 integrals [30/743]     35.85 sec, wall time      2.60 sec
    CPU time for 2e SOC J/K1/K2 integrals [31/743]     35.44 sec, wall time      2.38 sec
    CPU time for 2e SOC J/K1/K2 integrals [32/743]     35.88 sec, wall time      2.45 sec
    CPU time for 2e SOC J/K1/K2 integrals [33/743]     35.63 sec, wall time      2.61 sec
    CPU time for 2e SOC J/K1/K2 integrals [34/743]     35.53 sec, wall time      2.65 sec
    CPU time for 2e SOC J/K1/K2 integrals [35/743]     35.57 sec, wall time      2.69 sec
    CPU time for 2e SOC J/K1/K2 integrals [36/743]     35.84 sec, wall time      2.65 sec
    CPU time for 2e SOC J/K1/K2 integrals [37/743]     35.60 sec, wall time      2.60 sec
    CPU time for 2e SOC J/K1/K2 integrals [38/743]     35.71 sec, wall time      2.77 sec
    CPU time for 2e SOC J/K1/K2 integrals [39/743]     35.75 sec, wall time      2.39 sec
    CPU time for 2e SOC J/K1/K2 integrals [40/743]     35.66 sec, wall time      2.58 sec
    CPU time for 2e SOC J/K1/K2 integrals [41/743]     35.70 sec, wall time      2.75 sec
    CPU time for 2e SOC J/K1/K2 integrals [42/743]     36.08 sec, wall time      2.75 sec
    CPU time for 2e SOC J/K1/K2 integrals [43/743]     35.82 sec, wall time      2.38 sec
    CPU time for 2e SOC J/K1/K2 integrals [44/743]     35.78 sec, wall time      2.59 sec
    CPU time for 2e SOC J/K1/K2 integrals [45/743]     36.07 sec, wall time      2.56 sec
    CPU time for 2e SOC J/K1/K2 integrals [46/743]     35.96 sec, wall time      2.64 sec
    CPU time for 2e SOC J/K1/K2 integrals [47/743]     36.05 sec, wall time      2.32 sec
    CPU time for 2e SOC J/K1/K2 integrals [48/743]     35.77 sec, wall time      2.64 sec
    CPU time for 2e SOC J/K1/K2 integrals [49/743]     36.20 sec, wall time      2.56 sec
    CPU time for 2e SOC J/K1/K2 integrals [50/743]     36.10 sec, wall time      2.66 sec
    CPU time for 2e SOC J/K1/K2 integrals [51/743]     36.03 sec, wall time      2.59 sec
    CPU time for 2e SOC J/K1/K2 integrals [52/743]     36.10 sec, wall time      2.57 sec
    CPU time for 2e SOC J/K1/K2 integrals [53/743]     36.08 sec, wall time      2.69 sec
    CPU time for 2e SOC J/K1/K2 integrals [54/743]     36.30 sec, wall time      2.58 sec
    CPU time for 2e SOC J/K1/K2 integrals [55/743]     35.92 sec, wall time      2.34 sec
    CPU time for 2e SOC J/K1/K2 integrals [56/743]     35.98 sec, wall time      2.80 sec
    CPU time for 2e SOC J/K1/K2 integrals [57/743]     35.47 sec, wall time      2.84 sec
    CPU time for 2e SOC J/K1/K2 integrals [58/743]     36.20 sec, wall time      2.42 sec
    CPU time for 2e SOC J/K1/K2 integrals [59/743]     36.40 sec, wall time      2.64 sec
    CPU time for 2e SOC J/K1/K2 integrals [60/743]     36.16 sec, wall time      2.63 sec
    CPU time for 2e SOC J/K1/K2 integrals [61/743]     36.12 sec, wall time      2.46 sec
    CPU time for 2e SOC J/K1/K2 integrals [62/743]     35.87 sec, wall time      2.32 sec
    CPU time for 2e SOC J/K1/K2 integrals [63/743]     36.21 sec, wall time      2.31 sec
    CPU time for 2e SOC J/K1/K2 integrals [64/743]     35.70 sec, wall time      2.50 sec
    CPU time for 2e SOC J/K1/K2 integrals [65/743]     36.06 sec, wall time      2.48 sec
    CPU time for 2e SOC J/K1/K2 integrals [66/743]     36.20 sec, wall time      2.43 sec
    CPU time for 2e SOC J/K1/K2 integrals [67/743]     36.06 sec, wall time      2.53 sec
    CPU time for 2e SOC J/K1/K2 integrals [68/743]     36.12 sec, wall time      2.39 sec
    CPU time for 2e SOC J/K1/K2 integrals [69/743]     36.02 sec, wall time      2.65 sec
    CPU time for 2e SOC J/K1/K2 integrals [70/743]     36.02 sec, wall time      2.43 sec
    CPU time for 2e SOC J/K1/K2 integrals [71/743]     36.01 sec, wall time      2.59 sec
    CPU time for 2e SOC J/K1/K2 integrals [72/743]     35.79 sec, wall time      2.43 sec
    CPU time for 2e SOC J/K1/K2 integrals [73/743]     35.61 sec, wall time      2.40 sec
    CPU time for 2e SOC J/K1/K2 integrals [74/743]     35.54 sec, wall time      2.38 sec
    CPU time for 2e SOC J/K1/K2 integrals [75/743]     35.57 sec, wall time      2.32 sec
    CPU time for 2e SOC J/K1/K2 integrals [76/743]     35.52 sec, wall time      2.46 sec
    CPU time for 2e SOC J/K1/K2 integrals [77/743]     35.70 sec, wall time      2.47 sec
    CPU time for 2e SOC J/K1/K2 integrals [78/743]     36.09 sec, wall time      2.50 sec
    CPU time for 2e SOC J/K1/K2 integrals [79/743]     36.28 sec, wall time      2.34 sec
    CPU time for 2e SOC J/K1/K2 integrals [80/743]     35.85 sec, wall time      2.64 sec
    CPU time for 2e SOC J/K1/K2 integrals [81/743]     35.65 sec, wall time      2.33 sec
    CPU time for 2e SOC J/K1/K2 integrals [82/743]     35.68 sec, wall time      2.51 sec
    CPU time for 2e SOC J/K1/K2 integrals [83/743]     35.90 sec, wall time      2.48 sec
    CPU time for 2e SOC J/K1/K2 integrals [84/743]     35.73 sec, wall time      2.57 sec
    CPU time for 2e SOC J/K1/K2 integrals [85/743]     36.00 sec, wall time      2.55 sec
    CPU time for 2e SOC J/K1/K2 integrals [86/743]     35.85 sec, wall time      2.45 sec
    CPU time for 2e SOC J/K1/K2 integrals [87/743]     35.62 sec, wall time      2.45 sec
    CPU time for 2e SOC J/K1/K2 integrals [88/743]     35.68 sec, wall time      2.66 sec
    CPU time for 2e SOC J/K1/K2 integrals [89/743]     35.69 sec, wall time      2.44 sec
    CPU time for 2e SOC J/K1/K2 integrals [90/743]     35.67 sec, wall time      2.45 sec
    CPU time for 2e SOC J/K1/K2 integrals [91/743]     36.29 sec, wall time      2.51 sec
    CPU time for 2e SOC J/K1/K2 integrals [92/743]     36.02 sec, wall time      2.44 sec
    CPU time for 2e SOC J/K1/K2 integrals [93/743]     35.72 sec, wall time      2.36 sec
    CPU time for 2e SOC J/K1/K2 integrals [94/743]     35.88 sec, wall time      2.43 sec
    CPU time for 2e SOC J/K1/K2 integrals [95/743]     35.94 sec, wall time      2.39 sec
    CPU time for 2e SOC J/K1/K2 integrals [96/743]     36.43 sec, wall time      2.59 sec
    CPU time for 2e SOC J/K1/K2 integrals [97/743]     36.09 sec, wall time      2.26 sec
    CPU time for 2e SOC J/K1/K2 integrals [98/743]     36.03 sec, wall time      2.54 sec
    CPU time for 2e SOC J/K1/K2 integrals [99/743]     36.03 sec, wall time      2.37 sec
    CPU time for 2e SOC J/K1/K2 integrals [100/743]     35.93 sec, wall time      2.45 sec
    CPU time for 2e SOC J/K1/K2 integrals [101/743]     36.12 sec, wall time      2.37 sec
    CPU time for 2e SOC J/K1/K2 integrals [102/743]     35.89 sec, wall time      2.52 sec
    CPU time for 2e SOC J/K1/K2 integrals [103/743]     35.77 sec, wall time      2.49 sec
    CPU time for 2e SOC J/K1/K2 integrals [104/743]     35.64 sec, wall time      2.64 sec
    CPU time for 2e SOC J/K1/K2 integrals [105/743]     35.93 sec, wall time      2.43 sec
    CPU time for 2e SOC J/K1/K2 integrals [106/743]     35.52 sec, wall time      2.36 sec
    CPU time for 2e SOC J/K1/K2 integrals [107/743]     35.44 sec, wall time      2.73 sec
    CPU time for 2e SOC J/K1/K2 integrals [108/743]     35.34 sec, wall time      2.39 sec
    CPU time for 2e SOC J/K1/K2 integrals [109/743]     35.42 sec, wall time      2.31 sec
    CPU time for 2e SOC J/K1/K2 integrals [110/743]     35.39 sec, wall time      2.31 sec
    CPU time for 2e SOC J/K1/K2 integrals [111/743]     35.36 sec, wall time      2.47 sec
    CPU time for 2e SOC J/K1/K2 integrals [112/743]     35.54 sec, wall time      2.38 sec
    CPU time for 2e SOC J/K1/K2 integrals [113/743]     35.52 sec, wall time      2.32 sec
    CPU time for 2e SOC J/K1/K2 integrals [114/743]     35.61 sec, wall time      2.47 sec
    CPU time for 2e SOC J/K1/K2 integrals [115/743]     35.38 sec, wall time      2.48 sec
    CPU time for 2e SOC J/K1/K2 integrals [116/743]     35.45 sec, wall time      2.55 sec
    CPU time for 2e SOC J/K1/K2 integrals [117/743]     35.42 sec, wall time      2.49 sec
    CPU time for 2e SOC J/K1/K2 integrals [118/743]     35.67 sec, wall time      2.67 sec
    CPU time for 2e SOC J/K1/K2 integrals [119/743]     35.54 sec, wall time      2.42 sec
    CPU time for 2e SOC J/K1/K2 integrals [120/743]     35.62 sec, wall time      2.31 sec
    CPU time for 2e SOC J/K1/K2 integrals [121/743]     35.47 sec, wall time      2.40 sec
    CPU time for 2e SOC J/K1/K2 integrals [122/743]     35.61 sec, wall time      2.53 sec
    CPU time for 2e SOC J/K1/K2 integrals [123/743]     35.45 sec, wall time      2.44 sec
    CPU time for 2e SOC J/K1/K2 integrals [124/743]     35.48 sec, wall time      2.51 sec
    CPU time for 2e SOC J/K1/K2 integrals [125/743]     35.54 sec, wall time      2.53 sec
    CPU time for 2e SOC J/K1/K2 integrals [126/743]     35.61 sec, wall time      3.08 sec
    CPU time for 2e SOC J/K1/K2 integrals [127/743]     35.47 sec, wall time      2.88 sec
    CPU time for 2e SOC J/K1/K2 integrals [128/743]     35.69 sec, wall time      2.67 sec
    CPU time for 2e SOC J/K1/K2 integrals [129/743]     35.38 sec, wall time      2.49 sec
    CPU time for 2e SOC J/K1/K2 integrals [130/743]     35.21 sec, wall time      2.62 sec
    CPU time for 2e SOC J/K1/K2 integrals [131/743]     35.33 sec, wall time      3.07 sec
    CPU time for 2e SOC J/K1/K2 integrals [132/743]     35.24 sec, wall time      2.86 sec
    CPU time for 2e SOC J/K1/K2 integrals [133/743]     35.28 sec, wall time      2.73 sec
    CPU time for 2e SOC J/K1/K2 integrals [134/743]     35.26 sec, wall time      2.61 sec
    CPU time for 2e SOC J/K1/K2 integrals [135/743]     35.33 sec, wall time      2.76 sec
    CPU time for 2e SOC J/K1/K2 integrals [136/743]     35.45 sec, wall time      2.60 sec
    CPU time for 2e SOC J/K1/K2 integrals [137/743]     35.33 sec, wall time      2.37 sec
    CPU time for 2e SOC J/K1/K2 integrals [138/743]     35.22 sec, wall time      2.63 sec
    CPU time for 2e SOC J/K1/K2 integrals [139/743]     35.37 sec, wall time      2.69 sec
    CPU time for 2e SOC J/K1/K2 integrals [140/743]     35.30 sec, wall time      2.58 sec
    CPU time for 2e SOC J/K1/K2 integrals [141/743]     35.28 sec, wall time      2.51 sec
    CPU time for 2e SOC J/K1/K2 integrals [142/743]     35.28 sec, wall time      2.34 sec
    CPU time for 2e SOC J/K1/K2 integrals [143/743]     35.48 sec, wall time      2.52 sec
    CPU time for 2e SOC J/K1/K2 integrals [144/743]     35.33 sec, wall time      2.49 sec
    CPU time for 2e SOC J/K1/K2 integrals [145/743]     35.48 sec, wall time      2.34 sec
    CPU time for 2e SOC J/K1/K2 integrals [146/743]     35.30 sec, wall time      2.32 sec
    CPU time for 2e SOC J/K1/K2 integrals [147/743]     35.31 sec, wall time      2.41 sec
    CPU time for 2e SOC J/K1/K2 integrals [148/743]     35.32 sec, wall time      3.15 sec
    CPU time for 2e SOC J/K1/K2 integrals [149/743]     35.24 sec, wall time      2.41 sec
    CPU time for 2e SOC J/K1/K2 integrals [150/743]     35.23 sec, wall time      2.38 sec
    CPU time for 2e SOC J/K1/K2 integrals [151/743]     35.40 sec, wall time      2.46 sec
    CPU time for 2e SOC J/K1/K2 integrals [152/743]     35.51 sec, wall time      2.39 sec
    CPU time for 2e SOC J/K1/K2 integrals [153/743]     35.26 sec, wall time      2.34 sec
    CPU time for 2e SOC J/K1/K2 integrals [154/743]     35.36 sec, wall time      2.66 sec
    CPU time for 2e SOC J/K1/K2 integrals [155/743]     35.34 sec, wall time      2.39 sec
    CPU time for 2e SOC J/K1/K2 integrals [156/743]     35.41 sec, wall time      2.74 sec
    CPU time for 2e SOC J/K1/K2 integrals [157/743]     35.27 sec, wall time      2.41 sec
    CPU time for 2e SOC J/K1/K2 integrals [158/743]     35.21 sec, wall time      2.38 sec
    CPU time for 2e SOC J/K1/K2 integrals [159/743]     35.38 sec, wall time      2.18 sec
    CPU time for 2e SOC J/K1/K2 integrals [160/743]     35.36 sec, wall time      2.39 sec
    CPU time for 2e SOC J/K1/K2 integrals [161/743]     35.44 sec, wall time      2.28 sec
    CPU time for 2e SOC J/K1/K2 integrals [162/743]     35.30 sec, wall time      2.54 sec
    CPU time for 2e SOC J/K1/K2 integrals [163/743]     35.38 sec, wall time      2.43 sec
    CPU time for 2e SOC J/K1/K2 integrals [164/743]     35.40 sec, wall time      2.29 sec
    CPU time for 2e SOC J/K1/K2 integrals [165/743]     35.40 sec, wall time      2.51 sec
    CPU time for 2e SOC J/K1/K2 integrals [166/743]     35.44 sec, wall time      2.31 sec
    CPU time for 2e SOC J/K1/K2 integrals [167/743]     35.35 sec, wall time      2.38 sec
    CPU time for 2e SOC J/K1/K2 integrals [168/743]     35.18 sec, wall time      2.48 sec
    CPU time for 2e SOC J/K1/K2 integrals [169/743]     35.41 sec, wall time      2.39 sec
    CPU time for 2e SOC J/K1/K2 integrals [170/743]     35.28 sec, wall time      2.62 sec
    CPU time for 2e SOC J/K1/K2 integrals [171/743]     35.42 sec, wall time      2.34 sec
    CPU time for 2e SOC J/K1/K2 integrals [172/743]     35.68 sec, wall time      2.63 sec
    CPU time for 2e SOC J/K1/K2 integrals [173/743]     35.24 sec, wall time      2.27 sec
    CPU time for 2e SOC J/K1/K2 integrals [174/743]     35.37 sec, wall time      2.63 sec
    CPU time for 2e SOC J/K1/K2 integrals [175/743]     35.63 sec, wall time      2.40 sec
    CPU time for 2e SOC J/K1/K2 integrals [176/743]     35.27 sec, wall time      2.35 sec
    CPU time for 2e SOC J/K1/K2 integrals [177/743]     35.48 sec, wall time      2.53 sec
    CPU time for 2e SOC J/K1/K2 integrals [178/743]     35.32 sec, wall time      2.31 sec
    CPU time for 2e SOC J/K1/K2 integrals [179/743]     35.32 sec, wall time      2.36 sec
    CPU time for 2e SOC J/K1/K2 integrals [180/743]     35.36 sec, wall time      2.39 sec
    CPU time for 2e SOC J/K1/K2 integrals [181/743]     35.41 sec, wall time      2.40 sec
    CPU time for 2e SOC J/K1/K2 integrals [182/743]     35.61 sec, wall time      2.55 sec
    CPU time for 2e SOC J/K1/K2 integrals [183/743]     35.48 sec, wall time      2.46 sec
    CPU time for 2e SOC J/K1/K2 integrals [184/743]     35.33 sec, wall time      2.47 sec
    CPU time for 2e SOC J/K1/K2 integrals [185/743]     35.31 sec, wall time      2.46 sec
    CPU time for 2e SOC J/K1/K2 integrals [186/743]     35.22 sec, wall time      2.46 sec
    CPU time for 2e SOC J/K1/K2 integrals [187/743]     35.25 sec, wall time      2.39 sec
    CPU time for 2e SOC J/K1/K2 integrals [188/743]     35.39 sec, wall time      2.40 sec
    CPU time for 2e SOC J/K1/K2 integrals [189/743]     35.46 sec, wall time      2.50 sec
    CPU time for 2e SOC J/K1/K2 integrals [190/743]     35.48 sec, wall time      2.27 sec
    CPU time for 2e SOC J/K1/K2 integrals [191/743]     35.44 sec, wall time      2.37 sec
    CPU time for 2e SOC J/K1/K2 integrals [192/743]     35.30 sec, wall time      2.62 sec
    CPU time for 2e SOC J/K1/K2 integrals [193/743]     35.36 sec, wall time      2.42 sec
    CPU time for 2e SOC J/K1/K2 integrals [194/743]     35.42 sec, wall time      2.40 sec
    CPU time for 2e SOC J/K1/K2 integrals [195/743]     35.37 sec, wall time      2.21 sec
    CPU time for 2e SOC J/K1/K2 integrals [196/743]     35.53 sec, wall time      2.31 sec
    CPU time for 2e SOC J/K1/K2 integrals [197/743]     35.41 sec, wall time      2.27 sec
    CPU time for 2e SOC J/K1/K2 integrals [198/743]     35.41 sec, wall time      2.35 sec
    CPU time for 2e SOC J/K1/K2 integrals [199/743]     35.52 sec, wall time      2.57 sec
    CPU time for 2e SOC J/K1/K2 integrals [200/743]     35.37 sec, wall time      2.37 sec
    CPU time for 2e SOC J/K1/K2 integrals [201/743]     35.42 sec, wall time      2.40 sec
    CPU time for 2e SOC J/K1/K2 integrals [202/743]     35.42 sec, wall time      2.55 sec
    CPU time for 2e SOC J/K1/K2 integrals [203/743]     35.39 sec, wall time      2.40 sec
    CPU time for 2e SOC J/K1/K2 integrals [204/743]     35.33 sec, wall time      2.38 sec
    CPU time for 2e SOC J/K1/K2 integrals [205/743]     35.50 sec, wall time      2.38 sec
    CPU time for 2e SOC J/K1/K2 integrals [206/743]     35.37 sec, wall time      2.47 sec
    CPU time for 2e SOC J/K1/K2 integrals [207/743]     35.34 sec, wall time      2.34 sec
    CPU time for 2e SOC J/K1/K2 integrals [208/743]     35.34 sec, wall time      2.49 sec
    CPU time for 2e SOC J/K1/K2 integrals [209/743]     35.33 sec, wall time      2.34 sec
    CPU time for 2e SOC J/K1/K2 integrals [210/743]     35.37 sec, wall time      2.55 sec
    CPU time for 2e SOC J/K1/K2 integrals [211/743]     35.45 sec, wall time      2.50 sec
    CPU time for 2e SOC J/K1/K2 integrals [212/743]     35.38 sec, wall time      2.31 sec
    CPU time for 2e SOC J/K1/K2 integrals [213/743]     35.42 sec, wall time      2.49 sec
    CPU time for 2e SOC J/K1/K2 integrals [214/743]     35.34 sec, wall time      2.32 sec
    CPU time for 2e SOC J/K1/K2 integrals [215/743]     35.31 sec, wall time      2.28 sec
    CPU time for 2e SOC J/K1/K2 integrals [216/743]     35.35 sec, wall time      2.37 sec
    CPU time for 2e SOC J/K1/K2 integrals [217/743]     35.22 sec, wall time      2.32 sec
    CPU time for 2e SOC J/K1/K2 integrals [218/743]     35.36 sec, wall time      2.32 sec
    CPU time for 2e SOC J/K1/K2 integrals [219/743]     35.69 sec, wall time      2.41 sec
    CPU time for 2e SOC J/K1/K2 integrals [220/743]     35.52 sec, wall time      2.37 sec
    CPU time for 2e SOC J/K1/K2 integrals [221/743]     35.38 sec, wall time      2.49 sec
    CPU time for 2e SOC J/K1/K2 integrals [222/743]     35.26 sec, wall time      2.24 sec
    CPU time for 2e SOC J/K1/K2 integrals [223/743]     35.46 sec, wall time      2.35 sec
    CPU time for 2e SOC J/K1/K2 integrals [224/743]     35.59 sec, wall time      2.39 sec
    CPU time for 2e SOC J/K1/K2 integrals [225/743]     35.58 sec, wall time      2.31 sec
    CPU time for 2e SOC J/K1/K2 integrals [226/743]     35.50 sec, wall time      2.57 sec
    CPU time for 2e SOC J/K1/K2 integrals [227/743]     35.49 sec, wall time      2.51 sec
    CPU time for 2e SOC J/K1/K2 integrals [228/743]     35.60 sec, wall time      2.50 sec
    CPU time for 2e SOC J/K1/K2 integrals [229/743]     35.39 sec, wall time      2.40 sec
    CPU time for 2e SOC J/K1/K2 integrals [230/743]     35.49 sec, wall time      2.33 sec
    CPU time for 2e SOC J/K1/K2 integrals [231/743]     35.40 sec, wall time      2.32 sec
    CPU time for 2e SOC J/K1/K2 integrals [232/743]     35.34 sec, wall time      2.34 sec
    CPU time for 2e SOC J/K1/K2 integrals [233/743]     35.51 sec, wall time      2.69 sec
    CPU time for 2e SOC J/K1/K2 integrals [234/743]     35.64 sec, wall time      2.54 sec
    CPU time for 2e SOC J/K1/K2 integrals [235/743]     35.61 sec, wall time      2.39 sec
    CPU time for 2e SOC J/K1/K2 integrals [236/743]     35.36 sec, wall time      2.43 sec
    CPU time for 2e SOC J/K1/K2 integrals [237/743]     35.49 sec, wall time      2.30 sec
    CPU time for 2e SOC J/K1/K2 integrals [238/743]     35.53 sec, wall time      2.36 sec
    CPU time for 2e SOC J/K1/K2 integrals [239/743]     35.43 sec, wall time      2.19 sec
    CPU time for 2e SOC J/K1/K2 integrals [240/743]     35.33 sec, wall time      2.29 sec
    CPU time for 2e SOC J/K1/K2 integrals [241/743]     35.38 sec, wall time      2.35 sec
    CPU time for 2e SOC J/K1/K2 integrals [242/743]     35.31 sec, wall time      2.54 sec
    CPU time for 2e SOC J/K1/K2 integrals [243/743]     35.67 sec, wall time      2.23 sec
    CPU time for 2e SOC J/K1/K2 integrals [244/743]     35.29 sec, wall time      2.37 sec
    CPU time for 2e SOC J/K1/K2 integrals [245/743]     35.23 sec, wall time      2.37 sec
    CPU time for 2e SOC J/K1/K2 integrals [246/743]     35.24 sec, wall time      2.33 sec
    CPU time for 2e SOC J/K1/K2 integrals [247/743]     35.24 sec, wall time      2.38 sec
    CPU time for 2e SOC J/K1/K2 integrals [248/743]     35.35 sec, wall time      2.31 sec
    CPU time for 2e SOC J/K1/K2 integrals [249/743]     35.27 sec, wall time      2.28 sec
    CPU time for 2e SOC J/K1/K2 integrals [250/743]     35.37 sec, wall time      2.45 sec
    CPU time for 2e SOC J/K1/K2 integrals [251/743]     35.30 sec, wall time      2.58 sec
    CPU time for 2e SOC J/K1/K2 integrals [252/743]     35.22 sec, wall time      2.40 sec
    CPU time for 2e SOC J/K1/K2 integrals [253/743]     35.26 sec, wall time      2.29 sec
    CPU time for 2e SOC J/K1/K2 integrals [254/743]     35.31 sec, wall time      2.46 sec
    CPU time for 2e SOC J/K1/K2 integrals [255/743]     35.22 sec, wall time      2.25 sec
    CPU time for 2e SOC J/K1/K2 integrals [256/743]     35.34 sec, wall time      2.33 sec
    CPU time for 2e SOC J/K1/K2 integrals [257/743]     35.43 sec, wall time      2.49 sec
    CPU time for 2e SOC J/K1/K2 integrals [258/743]     35.38 sec, wall time      2.22 sec
    CPU time for 2e SOC J/K1/K2 integrals [259/743]     35.36 sec, wall time      2.38 sec
    CPU time for 2e SOC J/K1/K2 integrals [260/743]     35.37 sec, wall time      2.37 sec
    CPU time for 2e SOC J/K1/K2 integrals [261/743]     35.41 sec, wall time      2.36 sec
    CPU time for 2e SOC J/K1/K2 integrals [262/743]     35.32 sec, wall time      2.37 sec
    CPU time for 2e SOC J/K1/K2 integrals [263/743]     35.34 sec, wall time      2.41 sec
    CPU time for 2e SOC J/K1/K2 integrals [264/743]     35.58 sec, wall time      2.37 sec
    CPU time for 2e SOC J/K1/K2 integrals [265/743]     35.63 sec, wall time      2.25 sec
    CPU time for 2e SOC J/K1/K2 integrals [266/743]     35.48 sec, wall time      2.31 sec
    CPU time for 2e SOC J/K1/K2 integrals [267/743]     35.40 sec, wall time      2.29 sec
    CPU time for 2e SOC J/K1/K2 integrals [268/743]     35.34 sec, wall time      2.52 sec
    CPU time for 2e SOC J/K1/K2 integrals [269/743]     35.31 sec, wall time      2.38 sec
    CPU time for 2e SOC J/K1/K2 integrals [270/743]     35.39 sec, wall time      2.36 sec
    CPU time for 2e SOC J/K1/K2 integrals [271/743]     35.34 sec, wall time      2.34 sec
    CPU time for 2e SOC J/K1/K2 integrals [272/743]     35.44 sec, wall time      2.48 sec
    CPU time for 2e SOC J/K1/K2 integrals [273/743]     35.38 sec, wall time      2.35 sec
    CPU time for 2e SOC J/K1/K2 integrals [274/743]     35.30 sec, wall time      2.45 sec
    CPU time for 2e SOC J/K1/K2 integrals [275/743]     35.28 sec, wall time      2.25 sec
    CPU time for 2e SOC J/K1/K2 integrals [276/743]     35.34 sec, wall time      2.21 sec
    CPU time for 2e SOC J/K1/K2 integrals [277/743]     35.33 sec, wall time      2.30 sec
    CPU time for 2e SOC J/K1/K2 integrals [278/743]     35.25 sec, wall time      2.19 sec
    CPU time for 2e SOC J/K1/K2 integrals [279/743]     35.33 sec, wall time      2.39 sec
    CPU time for 2e SOC J/K1/K2 integrals [280/743]     35.50 sec, wall time      2.43 sec
    CPU time for 2e SOC J/K1/K2 integrals [281/743]     35.30 sec, wall time      2.41 sec
    CPU time for 2e SOC J/K1/K2 integrals [282/743]     35.44 sec, wall time      2.30 sec
    CPU time for 2e SOC J/K1/K2 integrals [283/743]     35.33 sec, wall time      2.38 sec
    CPU time for 2e SOC J/K1/K2 integrals [284/743]     35.26 sec, wall time      2.44 sec
    CPU time for 2e SOC J/K1/K2 integrals [285/743]     35.33 sec, wall time      2.35 sec
    CPU time for 2e SOC J/K1/K2 integrals [286/743]     35.31 sec, wall time      2.40 sec
    CPU time for 2e SOC J/K1/K2 integrals [287/743]     35.45 sec, wall time      2.38 sec
    CPU time for 2e SOC J/K1/K2 integrals [288/743]     35.39 sec, wall time      2.25 sec
    CPU time for 2e SOC J/K1/K2 integrals [289/743]     35.36 sec, wall time      2.37 sec
    CPU time for 2e SOC J/K1/K2 integrals [290/743]     35.27 sec, wall time      2.20 sec
    CPU time for 2e SOC J/K1/K2 integrals [291/743]     35.37 sec, wall time      2.36 sec
    CPU time for 2e SOC J/K1/K2 integrals [292/743]     35.22 sec, wall time      2.40 sec
    CPU time for 2e SOC J/K1/K2 integrals [293/743]     35.40 sec, wall time      2.33 sec
    CPU time for 2e SOC J/K1/K2 integrals [294/743]     35.45 sec, wall time      2.26 sec
    CPU time for 2e SOC J/K1/K2 integrals [295/743]     35.42 sec, wall time      2.37 sec
    CPU time for 2e SOC J/K1/K2 integrals [296/743]     35.25 sec, wall time      2.37 sec
    CPU time for 2e SOC J/K1/K2 integrals [297/743]     35.31 sec, wall time      2.25 sec
    CPU time for 2e SOC J/K1/K2 integrals [298/743]     35.43 sec, wall time      2.27 sec
    CPU time for 2e SOC J/K1/K2 integrals [299/743]     35.44 sec, wall time      2.20 sec
    CPU time for 2e SOC J/K1/K2 integrals [300/743]     35.62 sec, wall time      2.39 sec
    CPU time for 2e SOC J/K1/K2 integrals [301/743]     35.55 sec, wall time      2.38 sec
    CPU time for 2e SOC J/K1/K2 integrals [302/743]     35.33 sec, wall time      2.26 sec
    CPU time for 2e SOC J/K1/K2 integrals [303/743]     35.43 sec, wall time      2.31 sec
    CPU time for 2e SOC J/K1/K2 integrals [304/743]     35.22 sec, wall time      2.34 sec
    CPU time for 2e SOC J/K1/K2 integrals [305/743]     35.29 sec, wall time      2.51 sec
    CPU time for 2e SOC J/K1/K2 integrals [306/743]     35.47 sec, wall time      2.67 sec
    CPU time for 2e SOC J/K1/K2 integrals [307/743]     35.39 sec, wall time      2.26 sec
    CPU time for 2e SOC J/K1/K2 integrals [308/743]     35.32 sec, wall time      2.29 sec
    CPU time for 2e SOC J/K1/K2 integrals [309/743]     35.41 sec, wall time      2.08 sec
    CPU time for 2e SOC J/K1/K2 integrals [310/743]     35.33 sec, wall time      2.21 sec
    CPU time for 2e SOC J/K1/K2 integrals [311/743]     35.37 sec, wall time      2.51 sec
    CPU time for 2e SOC J/K1/K2 integrals [312/743]     35.66 sec, wall time      2.34 sec
    CPU time for 2e SOC J/K1/K2 integrals [313/743]     35.63 sec, wall time      2.40 sec
    CPU time for 2e SOC J/K1/K2 integrals [314/743]     35.48 sec, wall time      2.41 sec
    CPU time for 2e SOC J/K1/K2 integrals [315/743]     35.66 sec, wall time      2.45 sec
    CPU time for 2e SOC J/K1/K2 integrals [316/743]     35.78 sec, wall time      2.43 sec
    CPU time for 2e SOC J/K1/K2 integrals [317/743]     35.22 sec, wall time      2.37 sec
    CPU time for 2e SOC J/K1/K2 integrals [318/743]     35.30 sec, wall time      2.20 sec
    CPU time for 2e SOC J/K1/K2 integrals [319/743]     35.40 sec, wall time      2.27 sec
    CPU time for 2e SOC J/K1/K2 integrals [320/743]     35.32 sec, wall time      2.36 sec
    CPU time for 2e SOC J/K1/K2 integrals [321/743]     35.32 sec, wall time      2.52 sec
    CPU time for 2e SOC J/K1/K2 integrals [322/743]     35.32 sec, wall time      2.27 sec
    CPU time for 2e SOC J/K1/K2 integrals [323/743]     35.45 sec, wall time      2.55 sec
    CPU time for 2e SOC J/K1/K2 integrals [324/743]     35.50 sec, wall time      2.29 sec
    CPU time for 2e SOC J/K1/K2 integrals [325/743]     35.40 sec, wall time      2.19 sec
    CPU time for 2e SOC J/K1/K2 integrals [326/743]     35.46 sec, wall time      2.37 sec
    CPU time for 2e SOC J/K1/K2 integrals [327/743]     35.47 sec, wall time      2.39 sec
    CPU time for 2e SOC J/K1/K2 integrals [328/743]     35.45 sec, wall time      2.39 sec
    CPU time for 2e SOC J/K1/K2 integrals [329/743]     35.31 sec, wall time      2.26 sec
    CPU time for 2e SOC J/K1/K2 integrals [330/743]     35.26 sec, wall time      2.25 sec
    CPU time for 2e SOC J/K1/K2 integrals [331/743]     35.40 sec, wall time      2.37 sec
    CPU time for 2e SOC J/K1/K2 integrals [332/743]     35.53 sec, wall time      2.15 sec
    CPU time for 2e SOC J/K1/K2 integrals [333/743]     35.30 sec, wall time      2.31 sec
    CPU time for 2e SOC J/K1/K2 integrals [334/743]     35.33 sec, wall time      2.29 sec
    CPU time for 2e SOC J/K1/K2 integrals [335/743]     35.39 sec, wall time      2.34 sec
    CPU time for 2e SOC J/K1/K2 integrals [336/743]     35.43 sec, wall time      2.15 sec
    CPU time for 2e SOC J/K1/K2 integrals [337/743]     35.34 sec, wall time      2.35 sec
    CPU time for 2e SOC J/K1/K2 integrals [338/743]     35.42 sec, wall time      2.25 sec
    CPU time for 2e SOC J/K1/K2 integrals [339/743]     35.51 sec, wall time      2.24 sec
    CPU time for 2e SOC J/K1/K2 integrals [340/743]     35.68 sec, wall time      2.23 sec
    CPU time for 2e SOC J/K1/K2 integrals [341/743]     35.26 sec, wall time      2.22 sec
    CPU time for 2e SOC J/K1/K2 integrals [342/743]     35.39 sec, wall time      2.21 sec
    CPU time for 2e SOC J/K1/K2 integrals [343/743]     35.46 sec, wall time      2.33 sec
    CPU time for 2e SOC J/K1/K2 integrals [344/743]     35.36 sec, wall time      2.26 sec
    CPU time for 2e SOC J/K1/K2 integrals [345/743]     35.35 sec, wall time      2.18 sec
    CPU time for 2e SOC J/K1/K2 integrals [346/743]     35.33 sec, wall time      2.25 sec
    CPU time for 2e SOC J/K1/K2 integrals [347/743]     35.35 sec, wall time      2.10 sec
    CPU time for 2e SOC J/K1/K2 integrals [348/743]     35.29 sec, wall time      2.35 sec
    CPU time for 2e SOC J/K1/K2 integrals [349/743]     35.31 sec, wall time      2.42 sec
    CPU time for 2e SOC J/K1/K2 integrals [350/743]     35.40 sec, wall time      2.72 sec
    CPU time for 2e SOC J/K1/K2 integrals [351/743]     35.40 sec, wall time      2.23 sec
    CPU time for 2e SOC J/K1/K2 integrals [352/743]     35.30 sec, wall time      2.17 sec
    CPU time for 2e SOC J/K1/K2 integrals [353/743]     35.31 sec, wall time      2.20 sec
    CPU time for 2e SOC J/K1/K2 integrals [354/743]     35.51 sec, wall time      2.33 sec
    CPU time for 2e SOC J/K1/K2 integrals [355/743]     35.77 sec, wall time      2.25 sec
    CPU time for 2e SOC J/K1/K2 integrals [356/743]     35.23 sec, wall time      2.26 sec
    CPU time for 2e SOC J/K1/K2 integrals [357/743]     35.40 sec, wall time      2.45 sec
    CPU time for 2e SOC J/K1/K2 integrals [358/743]     35.33 sec, wall time      2.11 sec
    CPU time for 2e SOC J/K1/K2 integrals [359/743]     35.39 sec, wall time      2.30 sec
    CPU time for 2e SOC J/K1/K2 integrals [360/743]     35.30 sec, wall time      2.30 sec
    CPU time for 2e SOC J/K1/K2 integrals [361/743]     35.63 sec, wall time      2.39 sec
    CPU time for 2e SOC J/K1/K2 integrals [362/743]     35.54 sec, wall time      2.22 sec
    CPU time for 2e SOC J/K1/K2 integrals [363/743]     35.26 sec, wall time      2.32 sec
    CPU time for 2e SOC J/K1/K2 integrals [364/743]     35.25 sec, wall time      2.21 sec
    CPU time for 2e SOC J/K1/K2 integrals [365/743]     35.39 sec, wall time      2.33 sec
    CPU time for 2e SOC J/K1/K2 integrals [366/743]     35.42 sec, wall time      2.23 sec
    CPU time for 2e SOC J/K1/K2 integrals [367/743]     35.31 sec, wall time      2.21 sec
    CPU time for 2e SOC J/K1/K2 integrals [368/743]     35.49 sec, wall time      2.25 sec
    CPU time for 2e SOC J/K1/K2 integrals [369/743]     35.52 sec, wall time      2.20 sec
    CPU time for 2e SOC J/K1/K2 integrals [370/743]     35.36 sec, wall time      2.23 sec
    CPU time for 2e SOC J/K1/K2 integrals [371/743]     35.43 sec, wall time      2.28 sec
    CPU time for 2e SOC J/K1/K2 integrals [372/743]     35.42 sec, wall time      2.31 sec
    CPU time for 2e SOC J/K1/K2 integrals [373/743]     35.27 sec, wall time      2.36 sec
    CPU time for 2e SOC J/K1/K2 integrals [374/743]     35.41 sec, wall time      2.40 sec
    CPU time for 2e SOC J/K1/K2 integrals [375/743]     35.44 sec, wall time      2.29 sec
    CPU time for 2e SOC J/K1/K2 integrals [376/743]     35.52 sec, wall time      2.33 sec
[...]
    CPU time for 2e SOC J/K1/K2 integrals [709/743]     35.45 sec, wall time      2.20 sec
    CPU time for 2e SOC J/K1/K2 integrals [710/743]     35.46 sec, wall time      2.15 sec
    CPU time for 2e SOC J/K1/K2 integrals [711/743]     35.41 sec, wall time      2.17 sec
    CPU time for 2e SOC J/K1/K2 integrals [712/743]     35.36 sec, wall time      2.16 sec
    CPU time for 2e SOC J/K1/K2 integrals [713/743]     35.44 sec, wall time      2.26 sec
    CPU time for 2e SOC J/K1/K2 integrals [714/743]     35.42 sec, wall time      2.32 sec
    CPU time for 2e SOC J/K1/K2 integrals [715/743]     35.30 sec, wall time      2.39 sec
    CPU time for 2e SOC J/K1/K2 integrals [716/743]     35.33 sec, wall time      2.39 sec
    CPU time for 2e SOC J/K1/K2 integrals [717/743]     35.39 sec, wall time      2.12 sec
    CPU time for 2e SOC J/K1/K2 integrals [718/743]     35.46 sec, wall time      2.12 sec
    CPU time for 2e SOC J/K1/K2 integrals [719/743]     35.32 sec, wall time      2.15 sec
    CPU time for 2e SOC J/K1/K2 integrals [720/743]     35.41 sec, wall time      2.14 sec
    CPU time for 2e SOC J/K1/K2 integrals [721/743]     35.29 sec, wall time      2.33 sec
    CPU time for 2e SOC J/K1/K2 integrals [722/743]     35.46 sec, wall time      2.31 sec
    CPU time for 2e SOC J/K1/K2 integrals [723/743]     35.45 sec, wall time      2.21 sec
    CPU time for 2e SOC J/K1/K2 integrals [724/743]     35.63 sec, wall time      2.23 sec
    CPU time for 2e SOC J/K1/K2 integrals [725/743]     35.42 sec, wall time      2.14 sec
    CPU time for 2e SOC J/K1/K2 integrals [726/743]     35.28 sec, wall time      2.22 sec
    CPU time for 2e SOC J/K1/K2 integrals [727/743]     35.87 sec, wall time      2.16 sec
    CPU time for 2e SOC J/K1/K2 integrals [728/743]     35.38 sec, wall time      2.21 sec
    CPU time for 2e SOC J/K1/K2 integrals [729/743]     35.37 sec, wall time      2.12 sec
    CPU time for 2e SOC J/K1/K2 integrals [730/743]     35.39 sec, wall time      2.22 sec
    CPU time for 2e SOC J/K1/K2 integrals [731/743]     35.29 sec, wall time      2.07 sec
    CPU time for 2e SOC J/K1/K2 integrals [732/743]     35.57 sec, wall time      2.16 sec
    CPU time for 2e SOC J/K1/K2 integrals [733/743]     35.48 sec, wall time      2.27 sec
    CPU time for 2e SOC J/K1/K2 integrals [734/743]     35.46 sec, wall time      2.12 sec
    CPU time for 2e SOC J/K1/K2 integrals [735/743]     35.48 sec, wall time      2.15 sec
    CPU time for 2e SOC J/K1/K2 integrals [736/743]     35.48 sec, wall time      2.10 sec
    CPU time for 2e SOC J/K1/K2 integrals [737/743]     35.67 sec, wall time      2.13 sec
    CPU time for 2e SOC J/K1/K2 integrals [738/743]     35.71 sec, wall time      2.26 sec
    CPU time for 2e SOC J/K1/K2 integrals [739/743]     35.40 sec, wall time      2.13 sec
    CPU time for 2e SOC J/K1/K2 integrals [740/743]     35.65 sec, wall time      2.12 sec
    CPU time for 2e SOC J/K1/K2 integrals [741/743]     35.53 sec, wall time      2.15 sec
    CPU time for 2e SOC J/K1/K2 integrals [742/743]     35.69 sec, wall time      2.16 sec
    CPU time for 2e SOC J/K1/K2 integrals [743/743]     27.33 sec, wall time      1.79 sec
    CPU time for 2e SOC J/K1/K2 integrals  26370.59 sec, wall time   1781.74 sec
state 0 energy 0.0
(S, MS, I), [ 5 -1  0]	 coeff	 -0.436+0.341j	 |coeff| ** 2	 0.306
(S, MS, I), [5 1 1]	 coeff	 0.465+0.300j	 |coeff| ** 2	 0.306
(S, MS, I), [ 5 -3  1]	 coeff	 0.129+0.376j	 |coeff| ** 2	 0.158
(S, MS, I), [5 3 0]	 coeff	 -0.095+0.386j	 |coeff| ** 2	 0.158
(S, MS, I), [ 5 -5  0]	 coeff	 -0.184+0.000j	 |coeff| ** 2	 0.034
(S, MS, I), [5 5 1]	 coeff	 0.183-0.016j	 |coeff| ** 2	 0.034
(S, MS, I), [ 5 -1  1]	 coeff	 -0.013-0.014j	 |coeff| ** 2	 0.000
(S, MS, I), [ 5 -3  0]	 coeff	 0.016-0.006j	 |coeff| ** 2	 0.000
(S, MS, I), [ 5 -1  5]	 coeff	 -0.013+0.008j	 |coeff| ** 2	 0.000
(S, MS, I), [5 1 4]	 coeff	 0.013+0.006j	 |coeff| ** 2	 0.000
state 1 energy 1.1976660789514426e-06
(S, MS, I), [5 1 0]	 coeff	 0.399+0.384j	 |coeff| ** 2	 0.306
(S, MS, I), [ 5 -1  1]	 coeff	 0.493-0.251j	 |coeff| ** 2	 0.306
(S, MS, I), [5 3 1]	 coeff	 0.167-0.361j	 |coeff| ** 2	 0.158
(S, MS, I), [ 5 -3  0]	 coeff	 0.055+0.394j	 |coeff| ** 2	 0.158
(S, MS, I), [5 5 0]	 coeff	 0.183+0.019j	 |coeff| ** 2	 0.034
(S, MS, I), [ 5 -5  1]	 coeff	 0.181+0.035j	 |coeff| ** 2	 0.034
(S, MS, I), [5 1 1]	 coeff	 0.014-0.012j	 |coeff| ** 2	 0.000
(S, MS, I), [5 3 0]	 coeff	 0.016+0.008j	 |coeff| ** 2	 0.000
(S, MS, I), [5 1 5]	 coeff	 0.012+0.010j	 |coeff| ** 2	 0.000
(S, MS, I), [ 5 -1  4]	 coeff	 0.014-0.005j	 |coeff| ** 2	 0.000
state 2 energy 507.4895886822923
(S, MS, I), [ 5 -1  2]	 coeff	 -0.320-0.199j	 |coeff| ** 2	 0.142
(S, MS, I), [5 1 3]	 coeff	 0.078-0.368j	 |coeff| ** 2	 0.142
(S, MS, I), [ 5 -3  0]	 coeff	 0.231+0.281j	 |coeff| ** 2	 0.132
(S, MS, I), [5 3 1]	 coeff	 0.045+0.361j	 |coeff| ** 2	 0.132
(S, MS, I), [5 5 0]	 coeff	 -0.248+0.123j	 |coeff| ** 2	 0.077
(S, MS, I), [ 5 -5  1]	 coeff	 0.259-0.095j	 |coeff| ** 2	 0.076
(S, MS, I), [5 3 2]	 coeff	 -0.271+0.036j	 |coeff| ** 2	 0.075
(S, MS, I), [ 5 -3  3]	 coeff	 0.214-0.170j	 |coeff| ** 2	 0.074
(S, MS, I), [ 5 -1  1]	 coeff	 0.087-0.146j	 |coeff| ** 2	 0.029
(S, MS, I), [5 1 0]	 coeff	 -0.166-0.037j	 |coeff| ** 2	 0.029
state 3 energy 507.4895886822923
(S, MS, I), [5 1 2]	 coeff	 0.198-0.321j	 |coeff| ** 2	 0.142
(S, MS, I), [ 5 -1  3]	 coeff	 0.234+0.295j	 |coeff| ** 2	 0.142
(S, MS, I), [5 3 0]	 coeff	 0.083-0.354j	 |coeff| ** 2	 0.132
(S, MS, I), [ 5 -3  1]	 coeff	 0.120+0.343j	 |coeff| ** 2	 0.132
(S, MS, I), [ 5 -5  0]	 coeff	 -0.277+0.000j	 |coeff| ** 2	 0.077
(S, MS, I), [5 5 1]	 coeff	 -0.275+0.030j	 |coeff| ** 2	 0.076
(S, MS, I), [ 5 -3  2]	 coeff	 0.259-0.088j	 |coeff| ** 2	 0.075
(S, MS, I), [5 3 3]	 coeff	 0.267+0.057j	 |coeff| ** 2	 0.074
(S, MS, I), [5 1 1]	 coeff	 -0.143-0.092j	 |coeff| ** 2	 0.029
(S, MS, I), [ 5 -1  0]	 coeff	 -0.132+0.107j	 |coeff| ** 2	 0.029
mag energy [0.00000000e+00 1.19766608e-06 5.07489589e+02 5.07489589e+02
 7.62286627e+02 7.62286629e+02 9.21412217e+02 9.21412220e+02
 1.09315489e+03 1.09315489e+03 1.27723002e+03 1.27723002e+03
 1.43398191e+03 1.43398191e+03 1.53603446e+03 1.53603446e+03
 3.31424768e+03 3.31424768e+03 3.44461203e+03 3.44461203e+03]
TTO
#################################################
#################################################
Nj eigevanlues of the electronic H
#################################################
#################################################
+----------+------------------------+
| EIGstate |    Energy(cm^{-1})     |
+----------+------------------------+
|    1     |          0.0           |
|    2     | 1.1976660789514426e-06 |
|    3     |   507.4895886822923    |
|    4     |   507.4895886822923    |
|    5     |   762.2866270898065    |
|    6     |   762.2866290859166    |
|    7     |   921.4122171780474    |
|    8     |   921.4122199726016    |
|    9     |   1093.1548916467582   |
|    10    |   1093.1548928444242   |
|    11    |   1277.2300207608337   |
|    12    |   1277.2300211600557   |
|    13    |   1433.981914528888    |
|    14    |    1433.98191492811    |
|    15    |   1536.0344598490701   |
|    16    |   1536.0344602482921   |
+----------+------------------------+
#################################################
#################################################
Jz eigenvalues from electronic H NjxNj subspace
#################################################
#################################################
+----------+----------------------+
| EIGstate |          Mj          |
+----------+----------------------+
|    1     |  -7.46453927672788   |
|    2     |  -6.464253908588249  |
|    3     |  -5.463531689869194  |
|    4     |  -4.464519534285669  |
|    5     | -3.4689593163907384  |
|    6     | -2.4769246659561253  |
|    7     | -1.4866258932326764  |
|    8     | -0.49575968687347516 |
|    9     |  0.4957596869502497  |
|    10    |  1.4866258932285885  |
|    11    |  2.476924665849489   |
|    12    |  3.4689593163725063  |
|    13    |  4.464519534268796   |
|    14    |  5.463531689933709   |
|    15    |  6.464253908596043   |
|    16    |  7.464539276753918   |
+----------+----------------------+
#################################################
g tensor for MULTIPLET 1:
#################################################
[[[-0.52243607+6.38516272e-15j  1.80191757-9.25261449e+00j]
  [ 1.80191757+9.25261449e+00j  0.52243607+6.09587584e-15j]]

 [[ 0.18053275-1.51356829e-14j -0.6226706 +3.19730614e+00j]
  [-0.6226706 -3.19730614e+00j -0.18053275-1.91215042e-14j]]

 [[-0.00636578+2.56744062e-14j  0.02193671-1.12647797e-01j]
  [ 0.02193671+1.12647797e-01j  0.00636577+3.08563633e-14j]]]
/lustre/home/2201110421/.local/lib/python3.10/site-packages/embed_sim/psh/psh.py:454: ComplexWarning: Casting complex values to real discards the imaginary part
  Ma_G[i,j] = -0.5*(detmumu(peig_mu[i,...],peig_mu[j,...])+detmumu(peig_mu[j,...],peig_mu[i,...]))
[[ 8.91307212e+01 -3.07997590e+01  1.08514050e+00]
 [-3.07997590e+01  1.06430773e+01 -3.74978071e-01]
 [ 1.08514050e+00 -3.74978071e-01  1.32112687e-02]]
+----+------------------------+------+--------------------+----------------------+----------------------+
|    |         Value          | Axes |         x          |          y           |          z           |
+----+------------------------+------+--------------------+----------------------+----------------------+
| gX | 1.0045843734536532e-05 |  Xm  | 0.3177264396979045 |  0.9265555472407774  | 0.20135721341496104  |
| gY | 1.0799491498299323e-05 |  Ym  | -0.07642151699906  | -0.18664638707417902 |  0.9794502937524282  |
| gZ |   19.978689629507752   |  Zm  | 0.945097699318148  | -0.32658527840290064 | 0.011506288456478504 |
+----+------------------------+------+--------------------+----------------------+----------------------+
x , y , z  -- initial Cartesian axes
Xm, Ym, Zm -- main magnetic axes
#################################################
g tensor for MULTIPLET 2:
#################################################
[[[ 0.2720505 +3.61134055e-15j -2.76735877+7.52295794e+00j]
  [-2.76735877-7.52295794e+00j -0.2720505 +3.63470184e-15j]]

 [[-0.09689251+4.59227941e-16j  0.98634334-2.68130239e+00j]
  [ 0.98634334+2.68130239e+00j  0.09689252+1.37499286e-15j]]

 [[ 0.00334449+6.26677666e-15j -0.0339104 +9.23395882e-02j]
  [-0.0339104 -9.23395882e-02j -0.0033445 +4.96340231e-15j]]]
[[ 6.43271822e+01 -2.29272507e+01  7.89418944e-01]
 [-2.29272507e+01  8.17164385e+00 -2.81361709e-01]
 [ 7.89418944e-01 -2.81361709e-01  9.68770021e-03]]
+----+-----------------------+------+---------------------+----------------------+----------------------+
|    |         Value         | Axes |          x          |          y           |          z           |
+----+-----------------------+------+---------------------+----------------------+----------------------+
| gX | 9.893776530121497e-05 |  Xm  | 0.15390984011502873 | 0.40072843999206365  | -0.9031768810688711  |
| gY | 0.0001419523237283868 |  Ym  | 0.29857070082791315 |  0.8524773444646883  |  0.429112938259338   |
| gZ |   17.030386226414667  |  Zm  |  0.9418955874845657 | -0.33570685807108636 | 0.011558880618137611 |
+----+-----------------------+------+---------------------+----------------------+----------------------+
x , y , z  -- initial Cartesian axes
Xm, Ym, Zm -- main magnetic axes
#################################################
g tensor for MULTIPLET 3:
#################################################
[[[ 0.08400802+1.90041586e-15j  5.57527188+3.87719517e+00j]
  [ 5.57527188-3.87719517e+00j -0.08400802+2.12429431e-15j]]

 [[-0.03497724+2.46854230e-15j -2.03720181-1.40821642e+00j]
  [-2.03720181+1.40821642e+00j  0.03497724+1.99383014e-15j]]

 [[ 0.00681356+3.96343157e-15j  0.07028116+5.32987967e-02j]
  [ 0.07028116-5.32987967e-02j -0.0068136 +4.73465624e-15j]]]
[[ 4.61233563e+01 -1.68208222e+01  5.99058789e-01]
 [-1.68208222e+01  6.13448811e+00 -2.18471461e-01]
 [ 5.99058789e-01 -2.18471461e-01  7.82662759e-03]]
+----+----------------------+------+-----------------------+----------------------+-----------------------+
|    |        Value         | Axes |           x           |          y           |           z           |
+----+----------------------+------+-----------------------+----------------------+-----------------------+
| gX | 0.013549390173523605 |  Xm  | -0.030340061193080786 | -0.04763628323569037 |   0.998403858769731   |
| gY | 0.01545870019198834  |  Ym  |  -0.3414657327924997  | -0.9382751659429561  | -0.055144050478710786 |
| gZ |  14.458985493696714  |  Zm  |   0.9394044038726246  | -0.34259377912362404 |  0.012201167588071231 |
+----+----------------------+------+-----------------------+----------------------+-----------------------+
x , y , z  -- initial Cartesian axes
Xm, Ym, Zm -- main magnetic axes
#################################################
g tensor for MULTIPLET 4:
#################################################
[[[-0.01667579+1.50325640e-15j -4.06410617-3.93365674e+00j]
  [-4.06410617+3.93365674e+00j  0.01667579+1.85684999e-15j]]

 [[ 0.03732322-1.23952977e-14j  1.17958688+1.18650057e+00j]
  [ 1.17958688-1.18650057e+00j -0.03732322-6.39457074e-15j]]

 [[-0.04117478+2.36432216e-14j -0.08429232-3.06395792e-02j]
  [-0.08429232+3.06395792e-02j  0.04117489+1.58341066e-14j]]]
[[ 3.19908924e+01 -9.46187464e+00  4.63785146e-01]
 [-9.46187464e+00  2.80060181e+00 -1.37320769e-01]
 [ 4.63785146e-01 -1.37320769e-01  9.73934612e-03]]
+----+---------------------+------+----------------------+---------------------+----------------------+
|    |        Value        | Axes |          x           |          y          |          z           |
+----+---------------------+------+----------------------+---------------------+----------------------+
| gX |  0.087189467800972  |  Xm  |  0.2800089287279083  |  0.952523071925601  | 0.11956085179549787  |
| gY | 0.11009258228443847 |  Ym  | -0.04715174471408682 | -0.1107465855806844 |  0.9927295234617723  |
| gZ |  11.797678237136124 |  Zm  | -0.9588387313845151  |  0.283610633142758  | -0.01390309193299266 |
+----+---------------------+------+----------------------+---------------------+----------------------+
x , y , z  -- initial Cartesian axes
Xm, Ym, Zm -- main magnetic axes
#################################################
g tensor for MULTIPLET 5:
#################################################
[[[-0.10255262+3.16642930e-15j -0.67423197+4.28400829e+00j]
  [-0.67423197-4.28400829e+00j  0.10255262+3.23585331e-15j]]

 [[-0.07433863+2.65305145e-16j  0.11487173-1.29889567e+00j]
  [ 0.11487173+1.29889567e+00j  0.07433863+2.44286923e-16j]]

 [[ 0.15790293+8.23264285e-15j -0.17241659+4.77234835e-02j]
  [-0.17241659-4.77234835e-02j -0.15790297+8.34806872e-15j]]]
[[18.81783281 -5.6343064   0.30450322]
 [-5.6343064   1.70585171 -0.09353191]
 [ 0.30450322 -0.09353191  0.05693835]]
+----+---------------------+------+----------------------+----------------------+-----------------------+
|    |        Value        | Axes |          x           |          y           |           z           |
+----+---------------------+------+----------------------+----------------------+-----------------------+
| gX |  0.262117073124699  |  Xm  | 0.28558228301144806  |  0.9563139867594662  |  0.06250054686308779  |
| gY | 0.45657106749179527 |  Ym  | -0.03283112888903073 | -0.05541566225660327 |   0.9979234546559842  |
| gZ |  9.057887667524271  |  Zm  | -0.9577916665986612  | 0.28704122196102416  | -0.015571136415850778 |
+----+---------------------+------+----------------------+----------------------+-----------------------+
x , y , z  -- initial Cartesian axes
Xm, Ym, Zm -- main magnetic axes
#################################################
g tensor for MULTIPLET 6:
#################################################
[[[-0.34090351+4.00296706e-15j -0.26241279-2.98446608e+00j]
  [-0.26241279+2.98446608e+00j  0.34090352+4.04925574e-15j]]

 [[-0.66363618+2.08561707e-15j  0.96324778+8.31531589e-01j]
  [ 0.96324778-8.31531589e-01j  0.66363619+3.47658571e-15j]]

 [[ 0.67511952+6.35412301e-15j  0.49387528-1.67072572e-01j]
  [ 0.49387528+1.67072572e-01j -0.67511951+4.57268714e-15j]]]
[[ 9.09211345 -2.50821045  0.13887262]
 [-2.50821045  2.05970405 -0.1112356 ]
 [ 0.13887262 -0.1112356   0.72761239]]
+----+--------------------+------+----------------------+---------------------+-----------------------+
|    |       Value        | Axes |          x           |          y          |           z           |
+----+--------------------+------+----------------------+---------------------+-----------------------+
| gX | 1.6936449328752994 |  Xm  | 0.018554247512988304 | 0.11693109994758757 |   0.9929666951938892  |
| gY | 2.248803666631348  |  Ym  | 0.30492637108901344  |  0.9451619173073614 |  -0.11699939438458049 |
| gZ | 6.292230804740159  |  Zm  | -0.9521951733304008  |  0.3049525667000046 | -0.018118607820893244 |
+----+--------------------+------+----------------------+---------------------+-----------------------+
x , y , z  -- initial Cartesian axes
Xm, Ym, Zm -- main magnetic axes
#################################################
g tensor for MULTIPLET 7:
#################################################
[[[ 0.44537502+4.84817238e-15j -0.12515918+1.64597071e+00j]
  [-0.12515918-1.64597071e+00j -0.44537501+5.50569409e-15j]]

 [[ 0.94622714-5.47031545e-15j  0.56264998-4.25985185e-01j]
  [ 0.56264998+4.25985185e-01j -0.94622715+3.68320049e-15j]]

 [[-1.24115478+1.64204457e-14j  3.21348814+5.47026770e-01j]
  [ 3.21348814-5.47026770e-01j  1.24115466+4.31280791e-15j]]]
[[ 2.92324329 -0.35015402 -0.05458679]
 [-0.35015402  1.39338419  0.40062945]
 [-0.05458679  0.40062945 12.16620937]]
+----+-------------------+------+-----------------------+----------------------+----------------------+
|    |       Value       | Axes |           x           |          y           |          z           |
+----+-------------------+------+-----------------------+----------------------+----------------------+
| gX | 2.283642497754073 |  Xm  |   0.2100737834593098  |  0.9770595611717927  | -0.03498027195256556 |
| gY | 3.462657896886658 |  Ym  |   0.9776582506915489  | -0.20966612598829984 | 0.01498200479906906  |
| gZ | 6.980424385317334 |  Zm  | -0.007304132928140489 | 0.037346077917805975 |  0.9992756977462848  |
+----+-------------------+------+-----------------------+----------------------+----------------------+
x , y , z  -- initial Cartesian axes
Xm, Ym, Zm -- main magnetic axes
#################################################
g tensor for MULTIPLET 8:
#################################################
[[[-2.04287426+1.56082626e-15j -0.24142596+1.15210461e+00j]
  [-0.24142596-1.15210461e+00j  2.04287425+1.35163135e-15j]]

 [[-5.79809773+2.62645624e-15j -2.24594423+3.12905240e+00j]
  [-2.24594423-3.12905240e+00j  5.79809773+2.92547129e-15j]]

 [[ 1.01292376+4.74919771e-15j -0.56705652+2.63971906e+00j]
  [-0.56705652-2.63971906e+00j -1.01292366+4.26057224e-15j]]]
[[ 5.55896674 15.99200951  1.1088589 ]
 [15.99200951 48.45317175  3.66036592]
 [ 1.1088589   3.66036592  8.31568425]]
+----+--------------------+------+---------------------+---------------------+----------------------+
|    |       Value        | Axes |          x          |          y          |          z           |
+----+--------------------+------+---------------------+---------------------+----------------------+
| gX | 1.003569952983803  |  Xm  |  0.948755237945208  | -0.3157499728444191 | 0.012862858169176521 |
| gY | 5.655986824535436  |  Ym  | 0.03845501835992428 | 0.07495572461535054 | -0.9964451068224108  |
| gZ | 14.707615421554504 |  Zm  | 0.31366337056543553 |  0.9458771558696912 | 0.08325680734566986  |
+----+--------------------+------+---------------------+---------------------+----------------------+
x , y , z  -- initial Cartesian axes
Xm, Ym, Zm -- main magnetic axes
